
     Program PWSCF v.6.1 (svn rev. 13369) starts on 20Sep2018 at 13:33:24 

     This program is part of the open-source Quantum ESPRESSO suite
     for quantum simulation of materials; please cite
         "P. Giannozzi et al., J. Phys.:Condens. Matter 21 395502 (2009);
          URL http://www.quantum-espresso.org", 
     in publications or presentations arising from this work. More details at
     http://www.quantum-espresso.org/quote

     Parallel version (MPI), running on    36 processors
     R & G space division:  proc/nbgrp/npool/nimage =      36
     Reading input from C.in

     Current dimensions of program PWSCF are:
     Max number of different atomic species (ntypx) = 10
     Max number of k-points (npk) =  40000
     Max angular momentum in pseudopotentials (lmaxx) =  3
               file C.pbe-n-kjpaw_psl.0.1.UPF: wavefunction(s)  2P renormalized

     Subspace diagonalization in iterative solution of the eigenvalue problem:
     one sub-group per band group will be used
     scalapack distributed-memory algorithm (size of sub-group:  4*  4 procs)

     Found symmetry operation: I + ( -0.5000 -0.5000  0.0000)
     This is a supercell, fractional translations are disabled
 
     Parallelization info
     --------------------
     sticks:   dense  smooth     PW     G-vecs:    dense   smooth      PW
     Min          14      14      4                 1256     1256     192
     Max          15      15      5                 1283     1283     203
     Sum         537     537    159                45873    45873    7027
 


     bravais-lattice index     =            8
     lattice parameter (alat)  =       5.0000  a.u.
     unit-cell volume          =    1125.0000 (a.u.)^3
     number of atoms/cell      =            4
     number of atomic types    =            1
     number of electrons       =        16.00
     number of Kohn-Sham states=           12
     kinetic-energy cutoff     =      45.0000  Ry
     charge density cutoff     =     180.0000  Ry
     convergence threshold     =      1.0E-08
     mixing beta               =       0.0500
     number of iterations used =            8  plain     mixing
     Exchange-correlation      =  SLA  PW   PBX  PBC ( 1  4  3  4 0 0)
     nstep                     =         1000


     celldm(1)=   5.000000  celldm(2)=   1.500000  celldm(3)=   6.000000
     celldm(4)=   0.000000  celldm(5)=   0.000000  celldm(6)=   0.000000

     crystal axes: (cart. coord. in units of alat)
               a(1) = (   1.000000   0.000000   0.000000 )  
               a(2) = (   0.000000   1.500000   0.000000 )  
               a(3) = (   0.000000   0.000000   6.000000 )  

     reciprocal axes: (cart. coord. in units 2 pi/alat)
               b(1) = (  1.000000  0.000000  0.000000 )  
               b(2) = (  0.000000  0.666667  0.000000 )  
               b(3) = (  0.000000  0.000000  0.166667 )  


     PseudoPot. # 1 for  C read from file:
     ../C.pbe-n-kjpaw_psl.0.1.UPF
     MD5 check sum: 430fe95172b1e11ef3f8ed03bac87931
     Pseudo is Projector augmented-wave + core cor, Zval =  4.0
     Generated using "atomic" code by A. Dal Corso  v.5.0.99 svn rev. 10869
     Shape of augmentation charge: BESSEL
     Using radial grid of 1073 points,  4 beta functions with: 
                l(1) =   0
                l(2) =   0
                l(3) =   1
                l(4) =   1
     Q(r) pseudized with 0 coefficients 


     atomic species   valence    mass     pseudopotential
        C              4.00    12.01070      C( 1.00)

      4 Sym. Ops. (no inversion) found


                                    s                        frac. trans.

      isym =  1     identity                                     

 cryst.   s( 1) = (     1          0          0      )
                  (     0          1          0      )
                  (     0          0          1      )

 cart.    s( 1) = (  1.0000000  0.0000000  0.0000000 )
                  (  0.0000000  1.0000000  0.0000000 )
                  (  0.0000000  0.0000000  1.0000000 )


      isym =  2     180 deg rotation - cart. axis [0,1,0]        

 cryst.   s( 2) = (    -1          0          0      )
                  (     0          1          0      )
                  (     0          0         -1      )

 cart.    s( 2) = ( -1.0000000  0.0000000  0.0000000 )
                  (  0.0000000  1.0000000  0.0000000 )
                  (  0.0000000  0.0000000 -1.0000000 )


      isym =  3     inv. 180 deg rotation - cart. axis [0,0,1]   

 cryst.   s( 3) = (     1          0          0      )
                  (     0          1          0      )
                  (     0          0         -1      )

 cart.    s( 3) = (  1.0000000  0.0000000  0.0000000 )
                  (  0.0000000  1.0000000  0.0000000 )
                  (  0.0000000  0.0000000 -1.0000000 )


      isym =  4     inv. 180 deg rotation - cart. axis [1,0,0]   

 cryst.   s( 4) = (    -1          0          0      )
                  (     0          1          0      )
                  (     0          0          1      )

 cart.    s( 4) = ( -1.0000000  0.0000000  0.0000000 )
                  (  0.0000000  1.0000000  0.0000000 )
                  (  0.0000000  0.0000000  1.0000000 )


     point group C_2v (mm2) 
     there are  4 classes
     the character table:

       E     C2    s_v   s_v' 
A_1    1.00  1.00  1.00  1.00
A_2    1.00  1.00 -1.00 -1.00
B_1    1.00 -1.00  1.00 -1.00
B_2    1.00 -1.00 -1.00  1.00

     the symmetry operations in each class and the name of the first element:

     E        1
          identity                                               
     C2       2
          180 deg rotation - cart. axis [0,1,0]                  
     s_v      3
          inv. 180 deg rotation - cart. axis [0,0,1]             
     s_v'     4
          inv. 180 deg rotation - cart. axis [1,0,0]             

   Cartesian axes

     site n.     atom                  positions (alat units)
         1           C   tau(   1) = (   0.0000000   0.6251115   0.0000000  )
         2           C   tau(   2) = (   0.5000000   0.8748885   0.0000000  )
         3           C   tau(   3) = (   0.5000000   1.3751115   0.0000000  )
         4           C   tau(   4) = (   0.0000000   0.1248885   0.0000000  )

   Crystallographic axes

     site n.     atom                  positions (cryst. coord.)
         1           C   tau(   1) = (  0.0000000  0.4167410  0.0000000  )
         2           C   tau(   2) = (  0.5000000  0.5832590  0.0000000  )
         3           C   tau(   3) = (  0.5000000  0.9167410  0.0000000  )
         4           C   tau(   4) = (  0.0000000  0.0832590  0.0000000  )

     number of k points=     2  gaussian smearing, width (Ry)=  0.0010
                       cart. coord. in units 2pi/alat
        k(    1) = (   0.2500000   0.0833333  -0.0833333), wk =   1.0000000
        k(    2) = (   0.2500000   0.2500000  -0.0833333), wk =   1.0000000

                       cryst. coord.
        k(    1) = (   0.2500000   0.1250000  -0.5000000), wk =   1.0000000
        k(    2) = (   0.2500000   0.3750000  -0.5000000), wk =   1.0000000

     Dense  grid:    45873 G-vectors     FFT dimensions: (  24,  36, 135)

     Estimated max dynamical RAM per process >       1.57MB

     Estimated total allocated dynamical RAM >      56.70MB

     Check: negative/imaginary core charge=   -0.000009    0.000000

     Initial potential from superposition of free atoms
     Check: negative starting charge=   -0.000272

     starting charge   15.99983, renormalised to   16.00000

     negative rho (up, down):  2.723E-04 0.000E+00
     Starting wfc are   16 randomized atomic wfcs
     Checking if some PAW data can be deallocated... 

     total cpu time spent up to now is        0.9 secs

     per-process dynamical memory:    49.1 Mb

     Self-consistent Calculation

     iteration #  1     ecut=    45.00 Ry     beta=0.05
     Davidson diagonalization with overlap
     ethr =  1.00E-02,  avg # of iterations =  5.5

     negative rho (up, down):  2.407E-04 0.000E+00

     total cpu time spent up to now is        1.1 secs

     total energy              =     -73.89097664 Ry
     Harris-Foulkes estimate   =     -73.91747666 Ry
     estimated scf accuracy    <       0.39043263 Ry

     iteration #  2     ecut=    45.00 Ry     beta=0.05
     Davidson diagonalization with overlap
     ethr =  2.44E-03,  avg # of iterations =  2.0

     negative rho (up, down):  2.182E-03 0.000E+00

     total cpu time spent up to now is        1.2 secs

     total energy              =     -73.67956324 Ry
     Harris-Foulkes estimate   =     -73.91661133 Ry
     estimated scf accuracy    <       0.36553949 Ry

     iteration #  3     ecut=    45.00 Ry     beta=0.05
     Davidson diagonalization with overlap
     ethr =  2.28E-03,  avg # of iterations =  7.0

     negative rho (up, down):  4.909E-05 0.000E+00

     total cpu time spent up to now is        1.3 secs

     total energy              =     -73.69208532 Ry
     Harris-Foulkes estimate   =     -73.88826201 Ry
     estimated scf accuracy    <       0.30593617 Ry

     iteration #  4     ecut=    45.00 Ry     beta=0.05
     Davidson diagonalization with overlap
     ethr =  1.91E-03,  avg # of iterations =  3.5

     negative rho (up, down):  5.558E-05 0.000E+00

     total cpu time spent up to now is        1.4 secs

     total energy              =     -73.73889154 Ry
     Harris-Foulkes estimate   =     -73.72193514 Ry
     estimated scf accuracy    <       0.01267150 Ry

     iteration #  5     ecut=    45.00 Ry     beta=0.05
     Davidson diagonalization with overlap
     ethr =  7.92E-05,  avg # of iterations = 12.5

     negative rho (up, down):  5.735E-05 0.000E+00

     total cpu time spent up to now is        1.6 secs

     total energy              =     -73.75823297 Ry
     Harris-Foulkes estimate   =     -73.75782632 Ry
     estimated scf accuracy    <       0.01582278 Ry

     iteration #  6     ecut=    45.00 Ry     beta=0.05
     Davidson diagonalization with overlap
     ethr =  7.92E-05,  avg # of iterations =  1.0

     negative rho (up, down):  2.674E-05 0.000E+00

     total cpu time spent up to now is        1.6 secs

     total energy              =     -73.75027650 Ry
     Harris-Foulkes estimate   =     -73.75825646 Ry
     estimated scf accuracy    <       0.01665580 Ry

     iteration #  7     ecut=    45.00 Ry     beta=0.05
     Davidson diagonalization with overlap
     ethr =  7.92E-05,  avg # of iterations =  1.5

     negative rho (up, down):  1.761E-05 0.000E+00

     total cpu time spent up to now is        1.7 secs

     total energy              =     -73.76946205 Ry
     Harris-Foulkes estimate   =     -73.75094423 Ry
     estimated scf accuracy    <       0.00306977 Ry

     iteration #  8     ecut=    45.00 Ry     beta=0.05
     Davidson diagonalization with overlap
     ethr =  1.92E-05,  avg # of iterations =  5.0

     negative rho (up, down):  2.011E-05 0.000E+00

     total cpu time spent up to now is        1.8 secs

     total energy              =     -73.78363566 Ry
     Harris-Foulkes estimate   =     -73.79516519 Ry
     estimated scf accuracy    <       0.09315353 Ry

     iteration #  9     ecut=    45.00 Ry     beta=0.05
     Davidson diagonalization with overlap
     ethr =  1.92E-05,  avg # of iterations =  2.0

     negative rho (up, down):  4.083E-05 0.000E+00

     total cpu time spent up to now is        1.8 secs

     total energy              =     -73.75062701 Ry
     Harris-Foulkes estimate   =     -73.78374361 Ry
     estimated scf accuracy    <       0.07440617 Ry

     iteration # 10     ecut=    45.00 Ry     beta=0.05
     Davidson diagonalization with overlap
     ethr =  1.92E-05,  avg # of iterations =  4.5

     negative rho (up, down):  5.328E-05 0.000E+00

     total cpu time spent up to now is        1.9 secs

     total energy              =     -73.75346748 Ry
     Harris-Foulkes estimate   =     -73.75643941 Ry
     estimated scf accuracy    <       0.01024345 Ry

     iteration # 11     ecut=    45.00 Ry     beta=0.05
     Davidson diagonalization with overlap
     ethr =  1.92E-05,  avg # of iterations =  1.0

     negative rho (up, down):  7.603E-05 0.000E+00

     total cpu time spent up to now is        2.0 secs

     total energy              =     -73.75162942 Ry
     Harris-Foulkes estimate   =     -73.75354075 Ry
     estimated scf accuracy    <       0.00531480 Ry

     iteration # 12     ecut=    45.00 Ry     beta=0.05
     Davidson diagonalization with overlap
     ethr =  1.92E-05,  avg # of iterations =  3.0

     negative rho (up, down):  9.456E-05 0.000E+00

     total cpu time spent up to now is        2.0 secs

     total energy              =     -73.75141698 Ry
     Harris-Foulkes estimate   =     -73.75214888 Ry
     estimated scf accuracy    <       0.00112344 Ry

     iteration # 13     ecut=    45.00 Ry     beta=0.05
     Davidson diagonalization with overlap
     ethr =  7.02E-06,  avg # of iterations =  5.0

     negative rho (up, down):  1.213E-04 0.000E+00

     total cpu time spent up to now is        2.1 secs

     total energy              =     -73.75212205 Ry
     Harris-Foulkes estimate   =     -73.75184894 Ry
     estimated scf accuracy    <       0.00006743 Ry

     iteration # 14     ecut=    45.00 Ry     beta=0.05
     Davidson diagonalization with overlap
     ethr =  4.21E-07,  avg # of iterations =  4.0

     negative rho (up, down):  9.507E-05 0.000E+00

     total cpu time spent up to now is        2.2 secs

     total energy              =     -73.75168386 Ry
     Harris-Foulkes estimate   =     -73.75232714 Ry
     estimated scf accuracy    <       0.00103130 Ry

     iteration # 15     ecut=    45.00 Ry     beta=0.05
     Davidson diagonalization with overlap
     ethr =  4.21E-07,  avg # of iterations =  4.0

     negative rho (up, down):  1.193E-04 0.000E+00

     total cpu time spent up to now is        2.3 secs

     total energy              =     -73.75187008 Ry
     Harris-Foulkes estimate   =     -73.75187817 Ry
     estimated scf accuracy    <       0.00002397 Ry

     iteration # 16     ecut=    45.00 Ry     beta=0.05
     Davidson diagonalization with overlap
     ethr =  1.50E-07,  avg # of iterations =  1.0

     negative rho (up, down):  1.298E-04 0.000E+00

     total cpu time spent up to now is        2.4 secs

     total energy              =     -73.75187210 Ry
     Harris-Foulkes estimate   =     -73.75187126 Ry
     estimated scf accuracy    <       0.00000458 Ry

     iteration # 17     ecut=    45.00 Ry     beta=0.05
     Davidson diagonalization with overlap
     ethr =  2.86E-08,  avg # of iterations =  4.0

     negative rho (up, down):  1.293E-04 0.000E+00

     total cpu time spent up to now is        2.5 secs

     total energy              =     -73.75187511 Ry
     Harris-Foulkes estimate   =     -73.75187880 Ry
     estimated scf accuracy    <       0.00001760 Ry

     iteration # 18     ecut=    45.00 Ry     beta=0.05
     Davidson diagonalization with overlap
     ethr =  2.86E-08,  avg # of iterations =  1.0

     negative rho (up, down):  1.296E-04 0.000E+00

     total cpu time spent up to now is        2.5 secs

     total energy              =     -73.75187102 Ry
     Harris-Foulkes estimate   =     -73.75187521 Ry
     estimated scf accuracy    <       0.00001166 Ry

     iteration # 19     ecut=    45.00 Ry     beta=0.05
     Davidson diagonalization with overlap
     ethr =  2.86E-08,  avg # of iterations =  4.0

     negative rho (up, down):  1.251E-04 0.000E+00

     total cpu time spent up to now is        2.6 secs

     total energy              =     -73.75191421 Ry
     Harris-Foulkes estimate   =     -73.75187247 Ry
     estimated scf accuracy    <       0.00000362 Ry

     iteration # 20     ecut=    45.00 Ry     beta=0.05
     Davidson diagonalization with overlap
     ethr =  2.26E-08,  avg # of iterations =  5.0

     negative rho (up, down):  1.330E-04 0.000E+00

     total cpu time spent up to now is        2.7 secs

     total energy              =     -73.75187547 Ry
     Harris-Foulkes estimate   =     -73.75194264 Ry
     estimated scf accuracy    <       0.00015526 Ry

     iteration # 21     ecut=    45.00 Ry     beta=0.05
     Davidson diagonalization with overlap
     ethr =  2.26E-08,  avg # of iterations =  4.0

     negative rho (up, down):  1.338E-04 0.000E+00

     total cpu time spent up to now is        2.8 secs

     total energy              =     -73.75186945 Ry
     Harris-Foulkes estimate   =     -73.75188426 Ry
     estimated scf accuracy    <       0.00002772 Ry

     iteration # 22     ecut=    45.00 Ry     beta=0.05
     Davidson diagonalization with overlap
     ethr =  2.26E-08,  avg # of iterations =  4.0

     negative rho (up, down):  1.372E-04 0.000E+00

     total cpu time spent up to now is        2.9 secs

     total energy              =     -73.75187180 Ry
     Harris-Foulkes estimate   =     -73.75187235 Ry
     estimated scf accuracy    <       0.00000142 Ry

     iteration # 23     ecut=    45.00 Ry     beta=0.05
     Davidson diagonalization with overlap
     ethr =  8.90E-09,  avg # of iterations =  4.5

     negative rho (up, down):  1.373E-04 0.000E+00

     total cpu time spent up to now is        2.9 secs

     total energy              =     -73.75187372 Ry
     Harris-Foulkes estimate   =     -73.75187298 Ry
     estimated scf accuracy    <       0.00000276 Ry

     iteration # 24     ecut=    45.00 Ry     beta=0.05
     Davidson diagonalization with overlap
     ethr =  8.90E-09,  avg # of iterations =  1.0

     negative rho (up, down):  1.372E-04 0.000E+00

     total cpu time spent up to now is        3.0 secs

     total energy              =     -73.75187382 Ry
     Harris-Foulkes estimate   =     -73.75187374 Ry
     estimated scf accuracy    <       0.00000404 Ry

     iteration # 25     ecut=    45.00 Ry     beta=0.05
     Davidson diagonalization with overlap
     ethr =  8.90E-09,  avg # of iterations =  1.0

     negative rho (up, down):  1.371E-04 0.000E+00

     total cpu time spent up to now is        3.0 secs

     total energy              =     -73.75187399 Ry
     Harris-Foulkes estimate   =     -73.75187383 Ry
     estimated scf accuracy    <       0.00000416 Ry

     iteration # 26     ecut=    45.00 Ry     beta=0.05
     Davidson diagonalization with overlap
     ethr =  8.90E-09,  avg # of iterations =  1.0

     negative rho (up, down):  1.340E-04 0.000E+00

     total cpu time spent up to now is        3.1 secs

     total energy              =     -73.75187087 Ry
     Harris-Foulkes estimate   =     -73.75187400 Ry
     estimated scf accuracy    <       0.00000457 Ry

     iteration # 27     ecut=    45.00 Ry     beta=0.05
     Davidson diagonalization with overlap
     ethr =  8.90E-09,  avg # of iterations =  4.0

     negative rho (up, down):  1.347E-04 0.000E+00

     total cpu time spent up to now is        3.2 secs

     total energy              =     -73.75187138 Ry
     Harris-Foulkes estimate   =     -73.75187262 Ry
     estimated scf accuracy    <       0.00000174 Ry

     iteration # 28     ecut=    45.00 Ry     beta=0.05
     Davidson diagonalization with overlap
     ethr =  8.90E-09,  avg # of iterations =  3.5

     negative rho (up, down):  1.349E-04 0.000E+00

     total cpu time spent up to now is        3.3 secs

     total energy              =     -73.75187170 Ry
     Harris-Foulkes estimate   =     -73.75187171 Ry
     estimated scf accuracy    <       0.00000007 Ry

     iteration # 29     ecut=    45.00 Ry     beta=0.05
     Davidson diagonalization with overlap
     ethr =  4.53E-10,  avg # of iterations =  4.0

     negative rho (up, down):  1.350E-04 0.000E+00

     total cpu time spent up to now is        3.3 secs

     total energy              =     -73.75187181 Ry
     Harris-Foulkes estimate   =     -73.75187187 Ry
     estimated scf accuracy    <       0.00000018 Ry

     iteration # 30     ecut=    45.00 Ry     beta=0.05
     Davidson diagonalization with overlap
     ethr =  4.53E-10,  avg # of iterations =  1.0

     negative rho (up, down):  1.349E-04 0.000E+00

     total cpu time spent up to now is        3.4 secs

     total energy              =     -73.75187181 Ry
     Harris-Foulkes estimate   =     -73.75187181 Ry
     estimated scf accuracy    <       0.00000009 Ry

     iteration # 31     ecut=    45.00 Ry     beta=0.05
     Davidson diagonalization with overlap
     ethr =  4.53E-10,  avg # of iterations =  1.0

     negative rho (up, down):  1.349E-04 0.000E+00

     total cpu time spent up to now is        3.4 secs

     total energy              =     -73.75187181 Ry
     Harris-Foulkes estimate   =     -73.75187181 Ry
     estimated scf accuracy    <       0.00000007 Ry

     iteration # 32     ecut=    45.00 Ry     beta=0.05
     Davidson diagonalization with overlap
     ethr =  4.53E-10,  avg # of iterations =  1.0

     negative rho (up, down):  1.349E-04 0.000E+00

     total cpu time spent up to now is        3.5 secs

     total energy              =     -73.75187178 Ry
     Harris-Foulkes estimate   =     -73.75187181 Ry
     estimated scf accuracy    <       0.00000007 Ry

     iteration # 33     ecut=    45.00 Ry     beta=0.05
     Davidson diagonalization with overlap
     ethr =  4.53E-10,  avg # of iterations =  3.0

     negative rho (up, down):  1.349E-04 0.000E+00

     total cpu time spent up to now is        3.6 secs

     total energy              =     -73.75187191 Ry
     Harris-Foulkes estimate   =     -73.75187180 Ry
     estimated scf accuracy    <       0.00000003 Ry

     iteration # 34     ecut=    45.00 Ry     beta=0.05
     Davidson diagonalization with overlap
     ethr =  1.85E-10,  avg # of iterations =  4.0

     negative rho (up, down):  1.344E-04 0.000E+00

     total cpu time spent up to now is        3.7 secs

     total energy              =     -73.75187204 Ry
     Harris-Foulkes estimate   =     -73.75187196 Ry
     estimated scf accuracy    <       0.00000036 Ry

     iteration # 35     ecut=    45.00 Ry     beta=0.05
     Davidson diagonalization with overlap
     ethr =  1.85E-10,  avg # of iterations =  1.0

     negative rho (up, down):  1.348E-04 0.000E+00

     total cpu time spent up to now is        3.7 secs

     total energy              =     -73.75187179 Ry
     Harris-Foulkes estimate   =     -73.75187204 Ry
     estimated scf accuracy    <       0.00000048 Ry

     iteration # 36     ecut=    45.00 Ry     beta=0.05
     Davidson diagonalization with overlap
     ethr =  1.85E-10,  avg # of iterations =  4.0

     negative rho (up, down):  1.348E-04 0.000E+00

     total cpu time spent up to now is        3.8 secs

     total energy              =     -73.75187179 Ry
     Harris-Foulkes estimate   =     -73.75187182 Ry
     estimated scf accuracy    <       0.00000007 Ry

     iteration # 37     ecut=    45.00 Ry     beta=0.05
     Davidson diagonalization with overlap
     ethr =  1.85E-10,  avg # of iterations =  5.0

     negative rho (up, down):  1.347E-04 0.000E+00

     total cpu time spent up to now is        3.9 secs

     total energy              =     -73.75187180 Ry
     Harris-Foulkes estimate   =     -73.75187181 Ry
     estimated scf accuracy    <       0.00000004 Ry

     iteration # 38     ecut=    45.00 Ry     beta=0.05
     Davidson diagonalization with overlap
     ethr =  1.85E-10,  avg # of iterations =  1.0

     negative rho (up, down):  1.348E-04 0.000E+00

     total cpu time spent up to now is        3.9 secs

     total energy              =     -73.75187180 Ry
     Harris-Foulkes estimate   =     -73.75187180 Ry
     estimated scf accuracy    <       0.00000003 Ry

     iteration # 39     ecut=    45.00 Ry     beta=0.05
     Davidson diagonalization with overlap
     ethr =  1.85E-10,  avg # of iterations =  1.0

     negative rho (up, down):  1.347E-04 0.000E+00

     total cpu time spent up to now is        4.0 secs

     total energy              =     -73.75187179 Ry
     Harris-Foulkes estimate   =     -73.75187180 Ry
     estimated scf accuracy    <       0.00000002 Ry

     iteration # 40     ecut=    45.00 Ry     beta=0.05
     Davidson diagonalization with overlap
     ethr =  1.41E-10,  avg # of iterations =  1.5

     negative rho (up, down):  1.354E-04 0.000E+00

     total cpu time spent up to now is        4.0 secs

     total energy              =     -73.75187179 Ry
     Harris-Foulkes estimate   =     -73.75187180 Ry
     estimated scf accuracy    <       0.00000001 Ry

     iteration # 41     ecut=    45.00 Ry     beta=0.05
     Davidson diagonalization with overlap
     ethr =  7.69E-11,  avg # of iterations =  4.0

     negative rho (up, down):  1.352E-04 0.000E+00

     total cpu time spent up to now is        4.1 secs

     total energy              =     -73.75187179 Ry
     Harris-Foulkes estimate   =     -73.75187180 Ry
     estimated scf accuracy    <       0.00000002 Ry

     iteration # 42     ecut=    45.00 Ry     beta=0.05
     Davidson diagonalization with overlap
     ethr =  7.69E-11,  avg # of iterations =  1.0

     negative rho (up, down):  1.351E-04 0.000E+00

     total cpu time spent up to now is        4.2 secs

     End of self-consistent calculation

          k = 0.2500 0.0833-0.0833 (  5732 PWs)   bands (ev):

   -20.4606 -15.9120 -13.4225 -11.6061  -8.6052  -8.3184  -6.7081  -3.0606
    -0.4849   2.6868   3.0109   4.0955

     occupation numbers 
     1.0000   1.0000   1.0000   1.0000   1.0000   1.0000   1.0000   1.0000
     0.0000   0.0000   0.0000   0.0000

          k = 0.2500 0.2500-0.0833 (  5752 PWs)   bands (ev):

   -19.6340 -18.0349 -12.3814 -10.7350  -8.9035  -7.3529  -6.6600  -5.5149
     1.8341   3.8626   3.9311   4.3017

     occupation numbers 
     1.0000   1.0000   1.0000   1.0000   1.0000   1.0000   1.0000   1.0000
     0.0000   0.0000   0.0000   0.0000

     the Fermi energy is    -1.8753 ev

!    total energy              =     -73.75187179 Ry
     Harris-Foulkes estimate   =     -73.75187179 Ry
     estimated scf accuracy    <          8.3E-09 Ry

     total all-electron energy =      -304.808277 Ry

     The total energy is the sum of the following terms:

     one-electron contribution =    -338.09929244 Ry
     hartree contribution      =     172.14959750 Ry
     xc contribution           =     -16.58173572 Ry
     ewald contribution        =     135.40519336 Ry
     one-center paw contrib.   =     -26.62563448 Ry
      -> PAW hartree energy AE =      11.17375875 Ry
      -> PAW hartree energy PS =     -11.15861478 Ry
      -> PAW xc energy AE      =     -11.00225678 Ry
      -> PAW xc energy PS      =       4.33070439 Ry
      -> total E_H with PAW    =     172.16474147 Ry
      -> total E_XC with PAW   =     -23.25328812 Ry
     smearing contrib. (-TS)   =      -0.00000000 Ry

     convergence has been achieved in  42 iterations

     negative rho (up, down):  1.351E-04 0.000E+00

     Forces acting on atoms (cartesian axes, Ry/au):

     atom    1 type  1   force =     0.00000000    0.10202998    0.00000000
     atom    2 type  1   force =     0.00000000   -0.10198820    0.00000000
     atom    3 type  1   force =     0.00000000    0.10199461    0.00000000
     atom    4 type  1   force =     0.00000000   -0.10203640    0.00000000
     The non-local contrib.  to forces
     atom    1 type  1   force =     0.00000000    0.21070169    0.00000000
     atom    2 type  1   force =     0.00000000   -0.21068126    0.00000000
     atom    3 type  1   force =     0.00000000    0.21066744    0.00000000
     atom    4 type  1   force =     0.00000000   -0.21070715    0.00000000
     The ionic contribution  to forces
     atom    1 type  1   force =     0.00000000    1.24430867   -0.00000000
     atom    2 type  1   force =    -0.00000000   -1.24430867    0.00000000
     atom    3 type  1   force =     0.00000000    1.24430867   -0.00000000
     atom    4 type  1   force =    -0.00000000   -1.24430867    0.00000000
     The local contribution  to forces
     atom    1 type  1   force =    -0.00000000   -1.34296178    0.00000000
     atom    2 type  1   force =     0.00000000    1.34300316    0.00000000
     atom    3 type  1   force =    -0.00000000   -1.34299305    0.00000000
     atom    4 type  1   force =    -0.00000000    1.34296860    0.00000000
     The core correction contribution to forces
     atom    1 type  1   force =     0.00000000   -0.01004024    0.00000000
     atom    2 type  1   force =     0.00000000    0.01003970    0.00000000
     atom    3 type  1   force =     0.00000000   -0.01003936    0.00000000
     atom    4 type  1   force =     0.00000000    0.01004028    0.00000000
     The Hubbard contrib.    to forces
     atom    1 type  1   force =     0.00000000    0.00000000    0.00000000
     atom    2 type  1   force =     0.00000000    0.00000000    0.00000000
     atom    3 type  1   force =     0.00000000    0.00000000    0.00000000
     atom    4 type  1   force =     0.00000000    0.00000000    0.00000000
     The SCF correction term to forces
     atom    1 type  1   force =     0.00000000    0.00002198    0.00000000
     atom    2 type  1   force =    -0.00000000   -0.00004079    0.00000000
     atom    3 type  1   force =     0.00000000    0.00005125    0.00000000
     atom    4 type  1   force =    -0.00000000   -0.00002912    0.00000000

     Total force =     0.204025     Total SCF correction =     0.000075


     Computing stress (Cartesian axis) and pressure


     negative rho (up, down):  1.351E-04 0.000E+00
          total   stress  (Ry/bohr**3)                   (kbar)     P=   10.90
  -0.00102669   0.00000000   0.00000000       -151.03      0.00      0.00
   0.00000000   0.00125034   0.00000000          0.00    183.93      0.00
   0.00000000   0.00000000  -0.00000145          0.00      0.00     -0.21

     kinetic stress (kbar)   2241.14      0.00      0.00
                                0.00   2545.27      0.00
                                0.00      0.00   2745.65

     local   stress (kbar) -47561.05      0.00      0.00
                                0.00 -48011.96      0.00
                                0.00      0.00  47225.90

     nonloc. stress (kbar)    850.09      0.00      0.00
                                0.00    881.20      0.00
                                0.00      0.00    783.22

     hartree stress (kbar)  22261.66      0.00     -0.00
                                0.00  22319.80     -0.00
                               -0.00     -0.00 -22071.17

     exc-cor stress (kbar)   -281.10     -0.00     -0.00
                               -0.00   -280.09      0.00
                               -0.00      0.00   -306.87

     corecor stress (kbar)   -337.76      0.00      0.00
                                0.00   -343.48     -0.00
                                0.00     -0.00   -333.35

     ewald   stress (kbar)  22675.98     -0.00     -0.00
                               -0.00  23073.20     -0.00
                               -0.00     -0.00 -28043.59

     hubbard stress (kbar)      0.00      0.00      0.00
                                0.00      0.00      0.00
                                0.00      0.00      0.00

     london  stress (kbar)      0.00      0.00      0.00
                                0.00      0.00      0.00
                                0.00      0.00      0.00

     XDM     stress (kbar)      0.00      0.00      0.00
                                0.00      0.00      0.00
                                0.00      0.00      0.00

     dft-nl  stress (kbar)      0.00      0.00      0.00
                                0.00      0.00      0.00
                                0.00      0.00      0.00

     TS-vdW  stress (kbar)      0.00      0.00      0.00
                                0.00      0.00      0.00
                                0.00      0.00      0.00



     BFGS Geometry Optimization

     number of scf cycles    =   1
     number of bfgs steps    =   0

     enthalpy new            =     -73.7518717914 Ry

     new trust radius        =       0.2096887007 bohr
     new conv_thr            =       0.0000000100 Ry

     new unit-cell volume =   1130.38765 a.u.^3 (   167.50617 Ang^3 )
     density =      0.47626 g/cm^3

CELL_PARAMETERS (alat=  5.00000000)
   0.974332794   0.000000000   0.000000000
   0.000000000   1.546887819   0.000000000
   0.000000000   0.000000000   6.000000000

ATOMIC_POSITIONS (crystal)
C        0.000000000   0.430344998   0.000000000
C        0.500000000   0.569660574   0.000000000
C        0.500000000   0.930340282   0.000000000
C        0.000000000   0.069654147   0.000000000



     Writing output data file pwscf.save
     Check: negative starting charge=   -0.000272
     NEW-OLD atomic charge density approx. for the potential

     Check: negative/imaginary core charge=   -0.000010    0.000000
     Check: negative starting charge=   -0.000271

     negative rho (up, down):  3.544E-04 0.000E+00
     extrapolated charge   16.07626, renormalised to   16.00000

     total cpu time spent up to now is        4.4 secs

     per-process dynamical memory:    50.2 Mb

     Self-consistent Calculation

     iteration #  1     ecut=    45.00 Ry     beta=0.05
     Davidson diagonalization with overlap
     ethr =  1.00E-06,  avg # of iterations = 10.5

     negative rho (up, down):  3.299E-04 0.000E+00

     total cpu time spent up to now is        4.6 secs

     total energy              =     -73.81072670 Ry
     Harris-Foulkes estimate   =     -72.28245748 Ry
     estimated scf accuracy    <       0.02447237 Ry

     iteration #  2     ecut=    45.00 Ry     beta=0.05
     Davidson diagonalization with overlap
     ethr =  1.53E-04,  avg # of iterations =  5.0

     negative rho (up, down):  2.321E-04 0.000E+00

     total cpu time spent up to now is        4.7 secs

     total energy              =     -73.80534287 Ry
     Harris-Foulkes estimate   =     -73.81140148 Ry
     estimated scf accuracy    <       0.02069590 Ry

     iteration #  3     ecut=    45.00 Ry     beta=0.05
     Davidson diagonalization with overlap
     ethr =  1.29E-04,  avg # of iterations =  1.0

     negative rho (up, down):  4.986E-05 0.000E+00

     total cpu time spent up to now is        4.8 secs

     total energy              =     -73.79814306 Ry
     Harris-Foulkes estimate   =     -73.80557712 Ry
     estimated scf accuracy    <       0.01107845 Ry

     iteration #  4     ecut=    45.00 Ry     beta=0.05
     Davidson diagonalization with overlap
     ethr =  6.92E-05,  avg # of iterations =  3.0

     negative rho (up, down):  4.833E-05 0.000E+00

     total cpu time spent up to now is        4.8 secs

     total energy              =     -73.80108081 Ry
     Harris-Foulkes estimate   =     -73.80132409 Ry
     estimated scf accuracy    <       0.00071563 Ry

     iteration #  5     ecut=    45.00 Ry     beta=0.05
     Davidson diagonalization with overlap
     ethr =  4.47E-06,  avg # of iterations =  5.0

     negative rho (up, down):  4.808E-05 0.000E+00

     total cpu time spent up to now is        4.9 secs

     total energy              =     -73.80177678 Ry
     Harris-Foulkes estimate   =     -73.80159652 Ry
     estimated scf accuracy    <       0.00055982 Ry

     iteration #  6     ecut=    45.00 Ry     beta=0.05
     Davidson diagonalization with overlap
     ethr =  3.50E-06,  avg # of iterations =  1.0

     negative rho (up, down):  5.274E-05 0.000E+00

     total cpu time spent up to now is        5.0 secs

     total energy              =     -73.80121975 Ry
     Harris-Foulkes estimate   =     -73.80178354 Ry
     estimated scf accuracy    <       0.00085370 Ry

     iteration #  7     ecut=    45.00 Ry     beta=0.05
     Davidson diagonalization with overlap
     ethr =  3.50E-06,  avg # of iterations =  2.0

     negative rho (up, down):  6.636E-05 0.000E+00

     total cpu time spent up to now is        5.0 secs

     total energy              =     -73.80131245 Ry
     Harris-Foulkes estimate   =     -73.80128067 Ry
     estimated scf accuracy    <       0.00001968 Ry

     iteration #  8     ecut=    45.00 Ry     beta=0.05
     Davidson diagonalization with overlap
     ethr =  1.23E-07,  avg # of iterations =  5.0

     negative rho (up, down):  6.809E-05 0.000E+00

     total cpu time spent up to now is        5.1 secs

     total energy              =     -73.80155821 Ry
     Harris-Foulkes estimate   =     -73.80147685 Ry
     estimated scf accuracy    <       0.00026757 Ry

     iteration #  9     ecut=    45.00 Ry     beta=0.05
     Davidson diagonalization with overlap
     ethr =  1.23E-07,  avg # of iterations =  2.0

     negative rho (up, down):  6.755E-05 0.000E+00

     total cpu time spent up to now is        5.2 secs

     total energy              =     -73.80150161 Ry
     Harris-Foulkes estimate   =     -73.80155999 Ry
     estimated scf accuracy    <       0.00041469 Ry

     iteration # 10     ecut=    45.00 Ry     beta=0.05
     Davidson diagonalization with overlap
     ethr =  1.23E-07,  avg # of iterations =  1.0

     negative rho (up, down):  6.674E-05 0.000E+00

     total cpu time spent up to now is        5.2 secs

     total energy              =     -73.80139945 Ry
     Harris-Foulkes estimate   =     -73.80150238 Ry
     estimated scf accuracy    <       0.00031819 Ry

     iteration # 11     ecut=    45.00 Ry     beta=0.05
     Davidson diagonalization with overlap
     ethr =  1.23E-07,  avg # of iterations =  3.0

     negative rho (up, down):  6.662E-05 0.000E+00

     total cpu time spent up to now is        5.3 secs

     total energy              =     -73.80138721 Ry
     Harris-Foulkes estimate   =     -73.80140482 Ry
     estimated scf accuracy    <       0.00013330 Ry

     iteration # 12     ecut=    45.00 Ry     beta=0.05
     Davidson diagonalization with overlap
     ethr =  1.23E-07,  avg # of iterations =  3.0

     negative rho (up, down):  6.567E-05 0.000E+00

     total cpu time spent up to now is        5.4 secs

     total energy              =     -73.80135631 Ry
     Harris-Foulkes estimate   =     -73.80138910 Ry
     estimated scf accuracy    <       0.00009578 Ry

     iteration # 13     ecut=    45.00 Ry     beta=0.05
     Davidson diagonalization with overlap
     ethr =  1.23E-07,  avg # of iterations =  3.0

     negative rho (up, down):  6.430E-05 0.000E+00

     total cpu time spent up to now is        5.5 secs

     total energy              =     -73.80133822 Ry
     Harris-Foulkes estimate   =     -73.80135981 Ry
     estimated scf accuracy    <       0.00003581 Ry

     iteration # 14     ecut=    45.00 Ry     beta=0.05
     Davidson diagonalization with overlap
     ethr =  1.23E-07,  avg # of iterations =  4.0

     negative rho (up, down):  6.386E-05 0.000E+00

     total cpu time spent up to now is        5.6 secs

     total energy              =     -73.80135116 Ry
     Harris-Foulkes estimate   =     -73.80134878 Ry
     estimated scf accuracy    <       0.00000060 Ry

     iteration # 15     ecut=    45.00 Ry     beta=0.05
     Davidson diagonalization with overlap
     ethr =  3.78E-09,  avg # of iterations =  5.0

     negative rho (up, down):  6.477E-05 0.000E+00

     total cpu time spent up to now is        5.7 secs

     total energy              =     -73.80134868 Ry
     Harris-Foulkes estimate   =     -73.80135235 Ry
     estimated scf accuracy    <       0.00000738 Ry

     iteration # 16     ecut=    45.00 Ry     beta=0.05
     Davidson diagonalization with overlap
     ethr =  3.78E-09,  avg # of iterations =  4.0

     negative rho (up, down):  6.587E-05 0.000E+00

     total cpu time spent up to now is        5.8 secs

     total energy              =     -73.80134911 Ry
     Harris-Foulkes estimate   =     -73.80134926 Ry
     estimated scf accuracy    <       0.00000067 Ry

     iteration # 17     ecut=    45.00 Ry     beta=0.05
     Davidson diagonalization with overlap
     ethr =  3.78E-09,  avg # of iterations =  4.0

     negative rho (up, down):  6.525E-05 0.000E+00

     total cpu time spent up to now is        5.8 secs

     total energy              =     -73.80134881 Ry
     Harris-Foulkes estimate   =     -73.80134971 Ry
     estimated scf accuracy    <       0.00000143 Ry

     iteration # 18     ecut=    45.00 Ry     beta=0.05
     Davidson diagonalization with overlap
     ethr =  3.78E-09,  avg # of iterations =  3.0

     negative rho (up, down):  6.521E-05 0.000E+00

     total cpu time spent up to now is        5.9 secs

     total energy              =     -73.80134904 Ry
     Harris-Foulkes estimate   =     -73.80134903 Ry
     estimated scf accuracy    <       0.00000001 Ry

     iteration # 19     ecut=    45.00 Ry     beta=0.05
     Davidson diagonalization with overlap
     ethr =  8.36E-11,  avg # of iterations =  5.5

     negative rho (up, down):  6.520E-05 0.000E+00

     total cpu time spent up to now is        6.0 secs

     total energy              =     -73.80134908 Ry
     Harris-Foulkes estimate   =     -73.80134910 Ry
     estimated scf accuracy    <       0.00000008 Ry

     iteration # 20     ecut=    45.00 Ry     beta=0.05
     Davidson diagonalization with overlap
     ethr =  8.36E-11,  avg # of iterations =  1.0

     negative rho (up, down):  6.500E-05 0.000E+00

     total cpu time spent up to now is        6.1 secs

     total energy              =     -73.80134908 Ry
     Harris-Foulkes estimate   =     -73.80134908 Ry
     estimated scf accuracy    <       0.00000004 Ry

     iteration # 21     ecut=    45.00 Ry     beta=0.05
     Davidson diagonalization with overlap
     ethr =  8.36E-11,  avg # of iterations =  1.0

     negative rho (up, down):  6.486E-05 0.000E+00

     total cpu time spent up to now is        6.1 secs

     total energy              =     -73.80134907 Ry
     Harris-Foulkes estimate   =     -73.80134908 Ry
     estimated scf accuracy    <       0.00000004 Ry

     iteration # 22     ecut=    45.00 Ry     beta=0.05
     Davidson diagonalization with overlap
     ethr =  8.36E-11,  avg # of iterations =  3.0

     negative rho (up, down):  6.490E-05 0.000E+00

     total cpu time spent up to now is        6.2 secs

     total energy              =     -73.80134907 Ry
     Harris-Foulkes estimate   =     -73.80134907 Ry
     estimated scf accuracy    <       0.00000002 Ry

     iteration # 23     ecut=    45.00 Ry     beta=0.05
     Davidson diagonalization with overlap
     ethr =  8.36E-11,  avg # of iterations =  3.0

     negative rho (up, down):  6.483E-05 0.000E+00

     total cpu time spent up to now is        6.3 secs

     End of self-consistent calculation

          k = 0.2566 0.0808-0.0833 (  5732 PWs)   bands (ev):

   -20.3485 -15.7378 -13.3923 -11.8869  -9.3296  -8.1646  -5.9265  -3.5267
    -0.0268   2.7483   3.0733   4.1719

     occupation numbers 
     1.0000   1.0000   1.0000   1.0000   1.0000   1.0000   1.0000   1.0000
     0.0000   0.0000   0.0000   0.0000

          k = 0.2566 0.2424-0.0833 (  5752 PWs)   bands (ev):

   -19.5429 -17.9637 -12.3216 -10.8931  -9.0632  -7.2721  -6.4960  -5.5920
     1.9741   3.8430   3.9369   4.2192

     occupation numbers 
     1.0000   1.0000   1.0000   1.0000   1.0000   1.0000   1.0000   1.0000
     0.0000   0.0000   0.0000   0.0000

     the Fermi energy is    -1.9091 ev

!    total energy              =     -73.80134907 Ry
     Harris-Foulkes estimate   =     -73.80134907 Ry
     estimated scf accuracy    <          6.5E-09 Ry

     total all-electron energy =      -304.857755 Ry

     The total energy is the sum of the following terms:

     one-electron contribution =    -336.11539415 Ry
     hartree contribution      =     171.11495851 Ry
     xc contribution           =     -16.52394100 Ry
     ewald contribution        =     134.34465148 Ry
     one-center paw contrib.   =     -26.62162391 Ry
      -> PAW hartree energy AE =      10.88326021 Ry
      -> PAW hartree energy PS =     -10.86844021 Ry
      -> PAW xc energy AE      =     -10.93556809 Ry
      -> PAW xc energy PS      =       4.26534283 Ry
      -> total E_H with PAW    =     171.12977851 Ry
      -> total E_XC with PAW   =     -23.19416626 Ry
     smearing contrib. (-TS)   =      -0.00000000 Ry

     convergence has been achieved in  23 iterations

     negative rho (up, down):  6.483E-05 0.000E+00

     Forces acting on atoms (cartesian axes, Ry/au):

     atom    1 type  1   force =     0.00000000   -0.13515367    0.00000000
     atom    2 type  1   force =     0.00000000    0.13510400    0.00000000
     atom    3 type  1   force =     0.00000000   -0.13511494    0.00000000
     atom    4 type  1   force =     0.00000000    0.13516461    0.00000000
     The non-local contrib.  to forces
     atom    1 type  1   force =     0.00000000   -0.13506893    0.00000000
     atom    2 type  1   force =     0.00000000    0.13503473    0.00000000
     atom    3 type  1   force =     0.00000000   -0.13504446    0.00000000
     atom    4 type  1   force =     0.00000000    0.13510599    0.00000000
     The ionic contribution  to forces
     atom    1 type  1   force =     0.00000000    0.06002194   -0.00000000
     atom    2 type  1   force =    -0.00000000   -0.06049943   -0.00000000
     atom    3 type  1   force =     0.00000000    0.06049167   -0.00000000
     atom    4 type  1   force =    -0.00000000   -0.06001419   -0.00000000
     The local contribution  to forces
     atom    1 type  1   force =     0.00000000   -0.06293746    0.00000000
     atom    2 type  1   force =    -0.00000000    0.06349425    0.00000000
     atom    3 type  1   force =     0.00000000   -0.06349601    0.00000000
     atom    4 type  1   force =     0.00000000    0.06292121    0.00000000
     The core correction contribution to forces
     atom    1 type  1   force =     0.00000000    0.00288018    0.00000000
     atom    2 type  1   force =     0.00000000   -0.00287848    0.00000000
     atom    3 type  1   force =     0.00000000    0.00287867    0.00000000
     atom    4 type  1   force =     0.00000000   -0.00288114    0.00000000
     The Hubbard contrib.    to forces
     atom    1 type  1   force =     0.00000000    0.00000000    0.00000000
     atom    2 type  1   force =     0.00000000    0.00000000    0.00000000
     atom    3 type  1   force =     0.00000000    0.00000000    0.00000000
     atom    4 type  1   force =     0.00000000    0.00000000    0.00000000
     The SCF correction term to forces
     atom    1 type  1   force =     0.00000000   -0.00004803    0.00000000
     atom    2 type  1   force =    -0.00000000   -0.00004571    0.00000000
     atom    3 type  1   force =     0.00000000    0.00005656    0.00000000
     atom    4 type  1   force =    -0.00000000    0.00003411    0.00000000

     Total force =     0.270269     Total SCF correction =     0.000094


     Computing stress (Cartesian axis) and pressure


     negative rho (up, down):  6.483E-05 0.000E+00
          total   stress  (Ry/bohr**3)                   (kbar)     P=   -7.37
  -0.00074010   0.00000000   0.00000000       -108.87      0.00      0.00
   0.00000000   0.00059121   0.00000000          0.00     86.97      0.00
   0.00000000   0.00000000  -0.00000134          0.00      0.00     -0.20

     kinetic stress (kbar)   2166.69      0.00      0.00
                                0.00   2548.16      0.00
                                0.00      0.00   2717.82

     local   stress (kbar) -47601.87     -0.00     -0.00
                               -0.00 -47002.99      0.00
                               -0.00      0.00  46778.81

     nonloc. stress (kbar)    870.98      0.00      0.00
                                0.00    839.50      0.00
                                0.00      0.00    774.91

     hartree stress (kbar)  22104.16      0.00      0.00
                                0.00  22024.44     -0.00
                                0.00     -0.00 -21860.24

     exc-cor stress (kbar)   -275.09      0.00      0.00
                                0.00   -279.44      0.00
                                0.00      0.00   -303.40

     corecor stress (kbar)   -338.23     -0.00     -0.00
                               -0.00   -338.31      0.00
                               -0.00      0.00   -331.19

     ewald   stress (kbar)  22964.48      0.00      0.00
                                0.00  22295.61      0.00
                                0.00      0.00 -27776.91

     hubbard stress (kbar)      0.00      0.00      0.00
                                0.00      0.00      0.00
                                0.00      0.00      0.00

     london  stress (kbar)      0.00      0.00      0.00
                                0.00      0.00      0.00
                                0.00      0.00      0.00

     XDM     stress (kbar)      0.00      0.00      0.00
                                0.00      0.00      0.00
                                0.00      0.00      0.00

     dft-nl  stress (kbar)      0.00      0.00      0.00
                                0.00      0.00      0.00
                                0.00      0.00      0.00

     TS-vdW  stress (kbar)      0.00      0.00      0.00
                                0.00      0.00      0.00
                                0.00      0.00      0.00



     number of scf cycles    =   2
     number of bfgs steps    =   1

     enthalpy old            =     -73.7518717914 Ry
     enthalpy new            =     -73.8013490656 Ry

     CASE: enthalpy_new < enthalpy_old

     new trust radius        =       0.2399335986 bohr
     new conv_thr            =       0.0000000100 Ry

     new unit-cell volume =   1126.51454 a.u.^3 (   166.93223 Ang^3 )
     density =      0.47790 g/cm^3

CELL_PARAMETERS (alat=  5.00000000)
   0.939566797   0.000000000   0.000000000
   0.000000000   1.598629700   0.000000000
   0.000000000   0.000000000   6.000000000

ATOMIC_POSITIONS (crystal)
C        0.000000000   0.423295443   0.000000000
C        0.500000000   0.576707936   0.000000000
C        0.500000000   0.923292179   0.000000000
C        0.000000000   0.076704443   0.000000000



     Writing output data file pwscf.save
     Check: negative starting charge=   -0.000271
     NEW-OLD atomic charge density approx. for the potential

     Check: negative/imaginary core charge=   -0.000010    0.000000
     Check: negative starting charge=   -0.000291

     negative rho (up, down):  1.769E-04 0.000E+00
     extrapolated charge   15.94499, renormalised to   16.00000

     total cpu time spent up to now is        6.4 secs

     per-process dynamical memory:    50.6 Mb

     Self-consistent Calculation

     iteration #  1     ecut=    45.00 Ry     beta=0.05
     Davidson diagonalization with overlap
     ethr =  1.00E-06,  avg # of iterations =  8.5

     negative rho (up, down):  1.694E-04 0.000E+00

     total cpu time spent up to now is        6.6 secs

     total energy              =     -73.86240903 Ry
     Harris-Foulkes estimate   =     -74.97677093 Ry
     estimated scf accuracy    <       0.00092977 Ry

     iteration #  2     ecut=    45.00 Ry     beta=0.05
     Davidson diagonalization with overlap
     ethr =  5.81E-06,  avg # of iterations =  6.0

     negative rho (up, down):  1.586E-04 0.000E+00

     total cpu time spent up to now is        6.7 secs

     total energy              =     -73.86283742 Ry
     Harris-Foulkes estimate   =     -73.86286466 Ry
     estimated scf accuracy    <       0.00034663 Ry

     iteration #  3     ecut=    45.00 Ry     beta=0.05
     Davidson diagonalization with overlap
     ethr =  2.17E-06,  avg # of iterations =  2.5

     negative rho (up, down):  7.633E-05 0.000E+00

     total cpu time spent up to now is        6.8 secs

     total energy              =     -73.86270863 Ry
     Harris-Foulkes estimate   =     -73.86285243 Ry
     estimated scf accuracy    <       0.00028382 Ry

     iteration #  4     ecut=    45.00 Ry     beta=0.05
     Davidson diagonalization with overlap
     ethr =  1.77E-06,  avg # of iterations =  2.0

     negative rho (up, down):  6.983E-05 0.000E+00

     total cpu time spent up to now is        6.8 secs

     total energy              =     -73.86273723 Ry
     Harris-Foulkes estimate   =     -73.86273649 Ry
     estimated scf accuracy    <       0.00001106 Ry

     iteration #  5     ecut=    45.00 Ry     beta=0.05
     Davidson diagonalization with overlap
     ethr =  6.91E-08,  avg # of iterations =  4.5

     negative rho (up, down):  6.984E-05 0.000E+00

     total cpu time spent up to now is        6.9 secs

     total energy              =     -73.86277866 Ry
     Harris-Foulkes estimate   =     -73.86276876 Ry
     estimated scf accuracy    <       0.00002202 Ry

     iteration #  6     ecut=    45.00 Ry     beta=0.05
     Davidson diagonalization with overlap
     ethr =  6.91E-08,  avg # of iterations =  1.0

     negative rho (up, down):  6.984E-05 0.000E+00

     total cpu time spent up to now is        7.0 secs

     total energy              =     -73.86277364 Ry
     Harris-Foulkes estimate   =     -73.86277882 Ry
     estimated scf accuracy    <       0.00003464 Ry

     iteration #  7     ecut=    45.00 Ry     beta=0.05
     Davidson diagonalization with overlap
     ethr =  6.91E-08,  avg # of iterations =  1.0

     negative rho (up, down):  7.028E-05 0.000E+00

     total cpu time spent up to now is        7.0 secs

     total energy              =     -73.86275745 Ry
     Harris-Foulkes estimate   =     -73.86277370 Ry
     estimated scf accuracy    <       0.00002698 Ry

     iteration #  8     ecut=    45.00 Ry     beta=0.05
     Davidson diagonalization with overlap
     ethr =  6.91E-08,  avg # of iterations =  2.0

     negative rho (up, down):  7.025E-05 0.000E+00

     total cpu time spent up to now is        7.1 secs

     total energy              =     -73.86275943 Ry
     Harris-Foulkes estimate   =     -73.86275872 Ry
     estimated scf accuracy    <       0.00000191 Ry

     iteration #  9     ecut=    45.00 Ry     beta=0.05
     Davidson diagonalization with overlap
     ethr =  1.19E-08,  avg # of iterations =  3.5

     negative rho (up, down):  7.021E-05 0.000E+00

     total cpu time spent up to now is        7.2 secs

     total energy              =     -73.86276102 Ry
     Harris-Foulkes estimate   =     -73.86276109 Ry
     estimated scf accuracy    <       0.00000121 Ry

     iteration # 10     ecut=    45.00 Ry     beta=0.05
     Davidson diagonalization with overlap
     ethr =  7.55E-09,  avg # of iterations =  1.0

     negative rho (up, down):  7.007E-05 0.000E+00

     total cpu time spent up to now is        7.2 secs

     total energy              =     -73.86276095 Ry
     Harris-Foulkes estimate   =     -73.86276102 Ry
     estimated scf accuracy    <       0.00000115 Ry

     iteration # 11     ecut=    45.00 Ry     beta=0.05
     Davidson diagonalization with overlap
     ethr =  7.18E-09,  avg # of iterations =  1.0

     negative rho (up, down):  7.036E-05 0.000E+00

     total cpu time spent up to now is        7.3 secs

     total energy              =     -73.86276067 Ry
     Harris-Foulkes estimate   =     -73.86276095 Ry
     estimated scf accuracy    <       0.00000095 Ry

     iteration # 12     ecut=    45.00 Ry     beta=0.05
     Davidson diagonalization with overlap
     ethr =  5.91E-09,  avg # of iterations =  1.0

     negative rho (up, down):  7.297E-05 0.000E+00

     total cpu time spent up to now is        7.3 secs

     total energy              =     -73.86276873 Ry
     Harris-Foulkes estimate   =     -73.86276071 Ry
     estimated scf accuracy    <       0.00000053 Ry

     iteration # 13     ecut=    45.00 Ry     beta=0.05
     Davidson diagonalization with overlap
     ethr =  3.34E-09,  avg # of iterations =  5.0

     negative rho (up, down):  7.345E-05 0.000E+00

     total cpu time spent up to now is        7.4 secs

     total energy              =     -73.86278596 Ry
     Harris-Foulkes estimate   =     -73.86277384 Ry
     estimated scf accuracy    <       0.00002880 Ry

     iteration # 14     ecut=    45.00 Ry     beta=0.05
     Davidson diagonalization with overlap
     ethr =  3.34E-09,  avg # of iterations =  3.0

     negative rho (up, down):  7.174E-05 0.000E+00

     total cpu time spent up to now is        7.5 secs

     total energy              =     -73.86276275 Ry
     Harris-Foulkes estimate   =     -73.86278667 Ry
     estimated scf accuracy    <       0.00005537 Ry

     iteration # 15     ecut=    45.00 Ry     beta=0.05
     Davidson diagonalization with overlap
     ethr =  3.34E-09,  avg # of iterations =  4.0

     negative rho (up, down):  7.236E-05 0.000E+00

     total cpu time spent up to now is        7.6 secs

     total energy              =     -73.86276835 Ry
     Harris-Foulkes estimate   =     -73.86276552 Ry
     estimated scf accuracy    <       0.00001062 Ry

     iteration # 16     ecut=    45.00 Ry     beta=0.05
     Davidson diagonalization with overlap
     ethr =  3.34E-09,  avg # of iterations =  1.0

     negative rho (up, down):  7.266E-05 0.000E+00

     total cpu time spent up to now is        7.7 secs

     total energy              =     -73.86277009 Ry
     Harris-Foulkes estimate   =     -73.86276839 Ry
     estimated scf accuracy    <       0.00001544 Ry

     iteration # 17     ecut=    45.00 Ry     beta=0.05
     Davidson diagonalization with overlap
     ethr =  3.34E-09,  avg # of iterations =  3.0

     negative rho (up, down):  7.095E-05 0.000E+00

     total cpu time spent up to now is        7.7 secs

     total energy              =     -73.86275970 Ry
     Harris-Foulkes estimate   =     -73.86277021 Ry
     estimated scf accuracy    <       0.00001969 Ry

     iteration # 18     ecut=    45.00 Ry     beta=0.05
     Davidson diagonalization with overlap
     ethr =  3.34E-09,  avg # of iterations =  4.0

     negative rho (up, down):  7.034E-05 0.000E+00

     total cpu time spent up to now is        7.8 secs

     total energy              =     -73.86276030 Ry
     Harris-Foulkes estimate   =     -73.86276120 Ry
     estimated scf accuracy    <       0.00000133 Ry

     iteration # 19     ecut=    45.00 Ry     beta=0.05
     Davidson diagonalization with overlap
     ethr =  3.34E-09,  avg # of iterations =  4.0

     negative rho (up, down):  7.049E-05 0.000E+00

     total cpu time spent up to now is        7.9 secs

     total energy              =     -73.86276057 Ry
     Harris-Foulkes estimate   =     -73.86276061 Ry
     estimated scf accuracy    <       0.00000005 Ry

     iteration # 20     ecut=    45.00 Ry     beta=0.05
     Davidson diagonalization with overlap
     ethr =  3.43E-10,  avg # of iterations =  3.0

     negative rho (up, down):  7.061E-05 0.000E+00

     total cpu time spent up to now is        8.0 secs

     End of self-consistent calculation

          k = 0.2661 0.0782-0.0833 (  5732 PWs)   bands (ev):

   -20.3169 -16.0841 -13.3255 -11.8258  -9.0198  -8.1382  -6.4784  -3.7074
    -0.0305   2.8463   3.1693   4.2636

     occupation numbers 
     1.0000   1.0000   1.0000   1.0000   1.0000   1.0000   1.0000   1.0000
     0.0000   0.0000   0.0000   0.0000

          k = 0.2661 0.2346-0.0833 (  5752 PWs)   bands (ev):

   -19.5733 -18.1177 -11.8375 -10.4673  -9.7166  -7.2962  -7.2721  -5.7000
     2.1607   3.8676   4.1640   4.3231

     occupation numbers 
     1.0000   1.0000   1.0000   1.0000   1.0000   1.0000   1.0000   1.0000
     0.0000   0.0000   0.0000   0.0000

     the Fermi energy is    -1.8233 ev

!    total energy              =     -73.86276057 Ry
     Harris-Foulkes estimate   =     -73.86276058 Ry
     estimated scf accuracy    <          2.3E-09 Ry

     total all-electron energy =      -304.919166 Ry

     The total energy is the sum of the following terms:

     one-electron contribution =    -337.56099997 Ry
     hartree contribution      =     171.80920579 Ry
     xc contribution           =     -16.56043360 Ry
     ewald contribution        =     135.07338965 Ry
     one-center paw contrib.   =     -26.62392243 Ry
      -> PAW hartree energy AE =      11.07813201 Ry
      -> PAW hartree energy PS =     -11.06310786 Ry
      -> PAW xc energy AE      =     -10.97966257 Ry
      -> PAW xc energy PS      =       4.30865726 Ry
      -> total E_H with PAW    =     171.82422993 Ry
      -> total E_XC with PAW   =     -23.23143890 Ry
     smearing contrib. (-TS)   =      -0.00000000 Ry

     convergence has been achieved in  20 iterations

     negative rho (up, down):  7.061E-05 0.000E+00

     Forces acting on atoms (cartesian axes, Ry/au):

     atom    1 type  1   force =     0.00000000   -0.06124909    0.00000000
     atom    2 type  1   force =     0.00000000    0.06120522    0.00000000
     atom    3 type  1   force =     0.00000000   -0.06120535    0.00000000
     atom    4 type  1   force =     0.00000000    0.06124922    0.00000000
     The non-local contrib.  to forces
     atom    1 type  1   force =     0.00000000   -0.13852690    0.00000000
     atom    2 type  1   force =     0.00000000    0.13846499    0.00000000
     atom    3 type  1   force =     0.00000000   -0.13846167    0.00000000
     atom    4 type  1   force =     0.00000000    0.13852528    0.00000000
     The ionic contribution  to forces
     atom    1 type  1   force =    -0.00000000   -0.20484448   -0.00000000
     atom    2 type  1   force =    -0.00000000    0.20454378    0.00000000
     atom    3 type  1   force =     0.00000000   -0.20454576   -0.00000000
     atom    4 type  1   force =     0.00000000    0.20484646    0.00000000
     The local contribution  to forces
     atom    1 type  1   force =    -0.00000000    0.27815197    0.00000000
     atom    2 type  1   force =     0.00000000   -0.27788752    0.00000000
     atom    3 type  1   force =     0.00000000    0.27788846    0.00000000
     atom    4 type  1   force =     0.00000000   -0.27815491    0.00000000
     The core correction contribution to forces
     atom    1 type  1   force =     0.00000000    0.00395838   -0.00000000
     atom    2 type  1   force =     0.00000000   -0.00395640    0.00000000
     atom    3 type  1   force =    -0.00000000    0.00395633    0.00000000
     atom    4 type  1   force =    -0.00000000   -0.00395831   -0.00000000
     The Hubbard contrib.    to forces
     atom    1 type  1   force =     0.00000000    0.00000000    0.00000000
     atom    2 type  1   force =     0.00000000    0.00000000    0.00000000
     atom    3 type  1   force =     0.00000000    0.00000000    0.00000000
     atom    4 type  1   force =     0.00000000    0.00000000    0.00000000
     The SCF correction term to forces
     atom    1 type  1   force =     0.00000000    0.00001174   -0.00000000
     atom    2 type  1   force =    -0.00000000    0.00004017   -0.00000000
     atom    3 type  1   force =     0.00000000   -0.00004292   -0.00000000
     atom    4 type  1   force =    -0.00000000   -0.00000950   -0.00000000

     Total force =     0.122454     Total SCF correction =     0.000061


     Computing stress (Cartesian axis) and pressure


     negative rho (up, down):  7.061E-05 0.000E+00
          total   stress  (Ry/bohr**3)                   (kbar)     P=   -5.10
  -0.00038751   0.00000000   0.00000000        -57.00      0.00      0.00
   0.00000000   0.00028568   0.00000000          0.00     42.03      0.00
   0.00000000   0.00000000  -0.00000221          0.00      0.00     -0.33

     kinetic stress (kbar)   2264.94      0.00      0.00
                                0.00   2474.56      0.00
                                0.00      0.00   2733.56

     local   stress (kbar) -47840.32     -0.00     -0.00
                               -0.00 -47451.48      0.00
                               -0.00      0.00  47104.66

     nonloc. stress (kbar)    865.32      0.00      0.00
                                0.00    857.37      0.00
                                0.00      0.00    779.23

     hartree stress (kbar)  22255.14     -0.00      0.00
                               -0.00  22191.69      0.00
                                0.00      0.00 -22011.25

     exc-cor stress (kbar)   -278.41     -0.00     -0.00
                               -0.00   -280.87      0.00
                               -0.00      0.00   -305.87

     corecor stress (kbar)   -339.79      0.00      0.00
                                0.00   -339.82     -0.00
                                0.00     -0.00   -332.42

     ewald   stress (kbar)  23016.11     -0.00     -0.00
                               -0.00  22590.58     -0.00
                               -0.00     -0.00 -27968.24

     hubbard stress (kbar)      0.00      0.00      0.00
                                0.00      0.00      0.00
                                0.00      0.00      0.00

     london  stress (kbar)      0.00      0.00      0.00
                                0.00      0.00      0.00
                                0.00      0.00      0.00

     XDM     stress (kbar)      0.00      0.00      0.00
                                0.00      0.00      0.00
                                0.00      0.00      0.00

     dft-nl  stress (kbar)      0.00      0.00      0.00
                                0.00      0.00      0.00
                                0.00      0.00      0.00

     TS-vdW  stress (kbar)      0.00      0.00      0.00
                                0.00      0.00      0.00
                                0.00      0.00      0.00



     number of scf cycles    =   3
     number of bfgs steps    =   2

     enthalpy old            =     -73.8013490656 Ry
     enthalpy new            =     -73.8627605709 Ry

     CASE: enthalpy_new < enthalpy_old

     new trust radius        =       0.2609927325 bohr
     new conv_thr            =       0.0000000100 Ry

     new unit-cell volume =   1116.82423 a.u.^3 (   165.49627 Ang^3 )
     density =      0.48205 g/cm^3

CELL_PARAMETERS (alat=  5.00000000)
   0.903036123   0.000000000   0.000000000
   0.000000000   1.648991592   0.000000000
   0.000000000   0.000000000   6.000000000

ATOMIC_POSITIONS (crystal)
C        0.000000000   0.416834233   0.000000000
C        0.500000000   0.583161162   0.000000000
C        0.500000000   0.916839618   0.000000000
C        0.000000000   0.083164987   0.000000000



     Writing output data file pwscf.save
     Check: negative starting charge=   -0.000291
     NEW-OLD atomic charge density approx. for the potential

     Check: negative/imaginary core charge=   -0.000010    0.000000
     Check: negative starting charge=   -0.000333

     negative rho (up, down):  1.636E-04 0.000E+00
     extrapolated charge   15.86117, renormalised to   16.00000

     total cpu time spent up to now is        8.1 secs

     per-process dynamical memory:    50.7 Mb

     Self-consistent Calculation

     iteration #  1     ecut=    45.00 Ry     beta=0.05
     Davidson diagonalization with overlap
     ethr =  1.00E-06,  avg # of iterations = 17.0

     negative rho (up, down):  1.564E-04 0.000E+00

     total cpu time spent up to now is        8.4 secs

     total energy              =     -73.87782919 Ry
     Harris-Foulkes estimate   =     -76.70984504 Ry
     estimated scf accuracy    <       0.00239575 Ry

     iteration #  2     ecut=    45.00 Ry     beta=0.05
     Davidson diagonalization with overlap
     ethr =  1.50E-05,  avg # of iterations = 14.5

     negative rho (up, down):  1.480E-04 0.000E+00

     total cpu time spent up to now is        8.6 secs

     total energy              =     -73.88065224 Ry
     Harris-Foulkes estimate   =     -73.88066555 Ry
     estimated scf accuracy    <       0.00023953 Ry

     iteration #  3     ecut=    45.00 Ry     beta=0.05
     Davidson diagonalization with overlap
     ethr =  1.50E-06,  avg # of iterations =  5.5

     negative rho (up, down):  8.114E-05 0.000E+00

     total cpu time spent up to now is        8.7 secs

     total energy              =     -73.88056709 Ry
     Harris-Foulkes estimate   =     -73.88067361 Ry
     estimated scf accuracy    <       0.00021100 Ry

     iteration #  4     ecut=    45.00 Ry     beta=0.05
     Davidson diagonalization with overlap
     ethr =  1.32E-06,  avg # of iterations =  1.0

     negative rho (up, down):  9.081E-05 0.000E+00

     total cpu time spent up to now is        8.7 secs

     total energy              =     -73.88057393 Ry
     Harris-Foulkes estimate   =     -73.88057683 Ry
     estimated scf accuracy    <       0.00001183 Ry

     iteration #  5     ecut=    45.00 Ry     beta=0.05
     Davidson diagonalization with overlap
     ethr =  7.39E-08,  avg # of iterations =  4.5

     negative rho (up, down):  9.499E-05 0.000E+00

     total cpu time spent up to now is        8.8 secs

     total energy              =     -73.88060265 Ry
     Harris-Foulkes estimate   =     -73.88059877 Ry
     estimated scf accuracy    <       0.00001104 Ry

     iteration #  6     ecut=    45.00 Ry     beta=0.05
     Davidson diagonalization with overlap
     ethr =  6.90E-08,  avg # of iterations =  1.0

     negative rho (up, down):  9.650E-05 0.000E+00

     total cpu time spent up to now is        8.9 secs

     total energy              =     -73.88059556 Ry
     Harris-Foulkes estimate   =     -73.88060276 Ry
     estimated scf accuracy    <       0.00001546 Ry

     iteration #  7     ecut=    45.00 Ry     beta=0.05
     Davidson diagonalization with overlap
     ethr =  6.90E-08,  avg # of iterations =  1.0

     negative rho (up, down):  9.665E-05 0.000E+00

     total cpu time spent up to now is        8.9 secs

     total energy              =     -73.88059319 Ry
     Harris-Foulkes estimate   =     -73.88059582 Ry
     estimated scf accuracy    <       0.00000382 Ry

     iteration #  8     ecut=    45.00 Ry     beta=0.05
     Davidson diagonalization with overlap
     ethr =  2.39E-08,  avg # of iterations =  5.0

     negative rho (up, down):  9.651E-05 0.000E+00

     total cpu time spent up to now is        9.0 secs

     total energy              =     -73.88059536 Ry
     Harris-Foulkes estimate   =     -73.88059526 Ry
     estimated scf accuracy    <       0.00000081 Ry

     iteration #  9     ecut=    45.00 Ry     beta=0.05
     Davidson diagonalization with overlap
     ethr =  5.05E-09,  avg # of iterations =  2.5

     negative rho (up, down):  9.645E-05 0.000E+00

     total cpu time spent up to now is        9.1 secs

     total energy              =     -73.88059540 Ry
     Harris-Foulkes estimate   =     -73.88059541 Ry
     estimated scf accuracy    <       0.00000101 Ry

     iteration # 10     ecut=    45.00 Ry     beta=0.05
     Davidson diagonalization with overlap
     ethr =  5.05E-09,  avg # of iterations =  1.0

     negative rho (up, down):  9.651E-05 0.000E+00

     total cpu time spent up to now is        9.1 secs

     total energy              =     -73.88059544 Ry
     Harris-Foulkes estimate   =     -73.88059541 Ry
     estimated scf accuracy    <       0.00000100 Ry

     iteration # 11     ecut=    45.00 Ry     beta=0.05
     Davidson diagonalization with overlap
     ethr =  5.05E-09,  avg # of iterations =  1.0

     negative rho (up, down):  9.691E-05 0.000E+00

     total cpu time spent up to now is        9.2 secs

     total energy              =     -73.88059493 Ry
     Harris-Foulkes estimate   =     -73.88059544 Ry
     estimated scf accuracy    <       0.00000106 Ry

     iteration # 12     ecut=    45.00 Ry     beta=0.05
     Davidson diagonalization with overlap
     ethr =  5.05E-09,  avg # of iterations =  1.0

     negative rho (up, down):  9.694E-05 0.000E+00

     total cpu time spent up to now is        9.2 secs

     total energy              =     -73.88059477 Ry
     Harris-Foulkes estimate   =     -73.88059495 Ry
     estimated scf accuracy    <       0.00000029 Ry

     iteration # 13     ecut=    45.00 Ry     beta=0.05
     Davidson diagonalization with overlap
     ethr =  1.84E-09,  avg # of iterations =  3.5

     negative rho (up, down):  9.690E-05 0.000E+00

     total cpu time spent up to now is        9.3 secs

     total energy              =     -73.88059487 Ry
     Harris-Foulkes estimate   =     -73.88059486 Ry
     estimated scf accuracy    <       0.00000001 Ry

     iteration # 14     ecut=    45.00 Ry     beta=0.05
     Davidson diagonalization with overlap
     ethr =  8.63E-11,  avg # of iterations =  4.0

     negative rho (up, down):  9.707E-05 0.000E+00

     total cpu time spent up to now is        9.4 secs

     total energy              =     -73.88059489 Ry
     Harris-Foulkes estimate   =     -73.88059488 Ry
     estimated scf accuracy    <       0.00000002 Ry

     iteration # 15     ecut=    45.00 Ry     beta=0.05
     Davidson diagonalization with overlap
     ethr =  8.63E-11,  avg # of iterations =  1.0

     negative rho (up, down):  9.699E-05 0.000E+00

     total cpu time spent up to now is        9.5 secs

     total energy              =     -73.88059488 Ry
     Harris-Foulkes estimate   =     -73.88059490 Ry
     estimated scf accuracy    <       0.00000003 Ry

     iteration # 16     ecut=    45.00 Ry     beta=0.05
     Davidson diagonalization with overlap
     ethr =  8.63E-11,  avg # of iterations =  3.5

     negative rho (up, down):  9.695E-05 0.000E+00

     total cpu time spent up to now is        9.5 secs

     total energy              =     -73.88059488 Ry
     Harris-Foulkes estimate   =     -73.88059489 Ry
     estimated scf accuracy    <       0.00000003 Ry

     iteration # 17     ecut=    45.00 Ry     beta=0.05
     Davidson diagonalization with overlap
     ethr =  8.63E-11,  avg # of iterations =  1.0

     negative rho (up, down):  9.672E-05 0.000E+00

     total cpu time spent up to now is        9.6 secs

     total energy              =     -73.88059488 Ry
     Harris-Foulkes estimate   =     -73.88059488 Ry
     estimated scf accuracy    <       0.00000002 Ry

     iteration # 18     ecut=    45.00 Ry     beta=0.05
     Davidson diagonalization with overlap
     ethr =  8.63E-11,  avg # of iterations =  3.0

     negative rho (up, down):  9.669E-05 0.000E+00

     total cpu time spent up to now is        9.7 secs

     End of self-consistent calculation

          k = 0.2768 0.0758-0.0833 (  5732 PWs)   bands (ev):

   -20.3025 -16.4040 -13.5237 -11.3238  -8.5423  -8.1038  -7.0058  -3.8343
    -0.0793   2.9734   3.2988   4.3875

     occupation numbers 
     1.0000   1.0000   1.0000   1.0000   1.0000   1.0000   1.0000   1.0000
     0.0000   0.0000   0.0000   0.0000

          k = 0.2768 0.2274-0.0833 (  5752 PWs)   bands (ev):

   -19.6134 -18.2660 -11.4137 -10.0955  -9.9410  -7.9192  -7.3024  -5.7727
     2.2938   3.9292   4.2694   4.5863

     occupation numbers 
     1.0000   1.0000   1.0000   1.0000   1.0000   1.0000   1.0000   1.0000
     0.0000   0.0000   0.0000   0.0000

     the Fermi energy is    -1.6223 ev

!    total energy              =     -73.88059488 Ry
     Harris-Foulkes estimate   =     -73.88059488 Ry
     estimated scf accuracy    <          9.6E-10 Ry

     total all-electron energy =      -304.937000 Ry

     The total energy is the sum of the following terms:

     one-electron contribution =    -340.58119651 Ry
     hartree contribution      =     173.32509422 Ry
     xc contribution           =     -16.59635350 Ry
     ewald contribution        =     136.59702912 Ry
     one-center paw contrib.   =     -26.62516821 Ry
      -> PAW hartree energy AE =      11.22432974 Ry
      -> PAW hartree energy PS =     -11.20916608 Ry
      -> PAW xc energy AE      =     -11.01251396 Ry
      -> PAW xc energy PS      =       4.34105821 Ry
      -> total E_H with PAW    =     173.34025788 Ry
      -> total E_XC with PAW   =     -23.26780925 Ry
     smearing contrib. (-TS)   =      -0.00000000 Ry

     convergence has been achieved in  18 iterations

     negative rho (up, down):  9.669E-05 0.000E+00

     Forces acting on atoms (cartesian axes, Ry/au):

     atom    1 type  1   force =     0.00000000    0.01673836    0.00000000
     atom    2 type  1   force =     0.00000000   -0.01667757    0.00000000
     atom    3 type  1   force =     0.00000000    0.01666040    0.00000000
     atom    4 type  1   force =     0.00000000   -0.01672120    0.00000000
     The non-local contrib.  to forces
     atom    1 type  1   force =     0.00000000   -0.13697655    0.00000000
     atom    2 type  1   force =     0.00000000    0.13704147    0.00000000
     atom    3 type  1   force =     0.00000000   -0.13704098    0.00000000
     atom    4 type  1   force =     0.00000000    0.13699741    0.00000000
     The ionic contribution  to forces
     atom    1 type  1   force =    -0.00000000   -0.46221660   -0.00000000
     atom    2 type  1   force =     0.00000000    0.46264282   -0.00000000
     atom    3 type  1   force =     0.00000000   -0.46266408   -0.00000000
     atom    4 type  1   force =     0.00000000    0.46223786   -0.00000000
     The local contribution  to forces
     atom    1 type  1   force =    -0.00000000    0.61079452    0.00000000
     atom    2 type  1   force =     0.00000000   -0.61122042    0.00000000
     atom    3 type  1   force =     0.00000000    0.61125610    0.00000000
     atom    4 type  1   force =     0.00000000   -0.61084489    0.00000000
     The core correction contribution to forces
     atom    1 type  1   force =    -0.00000000    0.00512277    0.00000000
     atom    2 type  1   force =    -0.00000000   -0.00512475    0.00000000
     atom    3 type  1   force =    -0.00000000    0.00512488    0.00000000
     atom    4 type  1   force =    -0.00000000   -0.00512344    0.00000000
     The Hubbard contrib.    to forces
     atom    1 type  1   force =     0.00000000    0.00000000    0.00000000
     atom    2 type  1   force =     0.00000000    0.00000000    0.00000000
     atom    3 type  1   force =     0.00000000    0.00000000    0.00000000
     atom    4 type  1   force =     0.00000000    0.00000000    0.00000000
     The SCF correction term to forces
     atom    1 type  1   force =    -0.00000000    0.00001531    0.00000000
     atom    2 type  1   force =     0.00000000   -0.00001561    0.00000000
     atom    3 type  1   force =    -0.00000000   -0.00001445    0.00000000
     atom    4 type  1   force =     0.00000000    0.00001294    0.00000000

     Total force =     0.033399     Total SCF correction =     0.000029


     Computing stress (Cartesian axis) and pressure


     negative rho (up, down):  9.669E-05 0.000E+00
          total   stress  (Ry/bohr**3)                   (kbar)     P=   -0.35
   0.00001727   0.00000000   0.00000000          2.54      0.00      0.00
   0.00000000  -0.00002217   0.00000000          0.00     -3.26      0.00
   0.00000000   0.00000000  -0.00000230          0.00      0.00     -0.34

     kinetic stress (kbar)   2389.45      0.00      0.00
                                0.00   2410.39      0.00
                                0.00      0.00   2762.97

     local   stress (kbar) -48558.93     -0.00      0.00
                               -0.00 -48409.89     -0.00
                                0.00     -0.00  47953.65

     nonloc. stress (kbar)    861.55      0.00      0.00
                                0.00    879.24      0.00
                                0.00      0.00    786.70

     hartree stress (kbar)  22639.27      0.00      0.00
                                0.00  22593.23      0.00
                                0.00      0.00 -22402.59

     exc-cor stress (kbar)   -283.19      0.00      0.00
                                0.00   -283.56      0.00
                                0.00      0.00   -310.00

[...]
     Davidson diagonalization with overlap
     ethr =  1.89E-09,  avg # of iterations =  1.0

     negative rho (up, down):  8.612E-05 0.000E+00

     total cpu time spent up to now is       17.6 secs

     total energy              =     -73.88089825 Ry
     Harris-Foulkes estimate   =     -73.88089827 Ry
     estimated scf accuracy    <       0.00000006 Ry

     iteration # 30     ecut=    45.00 Ry     beta=0.05
     Davidson diagonalization with overlap
     ethr =  3.89E-10,  avg # of iterations =  3.5

     negative rho (up, down):  8.584E-05 0.000E+00

     total cpu time spent up to now is       17.6 secs

     total energy              =     -73.88089829 Ry
     Harris-Foulkes estimate   =     -73.88089836 Ry
     estimated scf accuracy    <       0.00000015 Ry

     iteration # 31     ecut=    45.00 Ry     beta=0.05
     Davidson diagonalization with overlap
     ethr =  3.89E-10,  avg # of iterations =  1.0

     negative rho (up, down):  8.581E-05 0.000E+00

     total cpu time spent up to now is       17.7 secs

     total energy              =     -73.88089828 Ry
     Harris-Foulkes estimate   =     -73.88089829 Ry
     estimated scf accuracy    <       0.00000004 Ry

     iteration # 32     ecut=    45.00 Ry     beta=0.05
     Davidson diagonalization with overlap
     ethr =  2.29E-10,  avg # of iterations =  3.0

     negative rho (up, down):  8.587E-05 0.000E+00

     total cpu time spent up to now is       17.8 secs

     total energy              =     -73.88089830 Ry
     Harris-Foulkes estimate   =     -73.88089829 Ry
     estimated scf accuracy    <       0.00000002 Ry

     iteration # 33     ecut=    45.00 Ry     beta=0.05
     Davidson diagonalization with overlap
     ethr =  9.70E-11,  avg # of iterations =  1.0

     negative rho (up, down):  8.556E-05 0.000E+00

     total cpu time spent up to now is       17.8 secs

     total energy              =     -73.88089831 Ry
     Harris-Foulkes estimate   =     -73.88089830 Ry
     estimated scf accuracy    <       0.00000003 Ry

     iteration # 34     ecut=    45.00 Ry     beta=0.05
     Davidson diagonalization with overlap
     ethr =  9.70E-11,  avg # of iterations =  4.0

     negative rho (up, down):  8.559E-05 0.000E+00

     total cpu time spent up to now is       17.9 secs

     total energy              =     -73.88089831 Ry
     Harris-Foulkes estimate   =     -73.88089836 Ry
     estimated scf accuracy    <       0.00000012 Ry

     iteration # 35     ecut=    45.00 Ry     beta=0.05
     Davidson diagonalization with overlap
     ethr =  9.70E-11,  avg # of iterations =  3.0

     negative rho (up, down):  8.554E-05 0.000E+00

     total cpu time spent up to now is       18.0 secs

     total energy              =     -73.88089833 Ry
     Harris-Foulkes estimate   =     -73.88089831 Ry
     estimated scf accuracy    <       0.00000004 Ry

     iteration # 36     ecut=    45.00 Ry     beta=0.05
     Davidson diagonalization with overlap
     ethr =  9.70E-11,  avg # of iterations =  1.0

     negative rho (up, down):  8.563E-05 0.000E+00

     total cpu time spent up to now is       18.0 secs

     total energy              =     -73.88089830 Ry
     Harris-Foulkes estimate   =     -73.88089833 Ry
     estimated scf accuracy    <       0.00000007 Ry

     iteration # 37     ecut=    45.00 Ry     beta=0.05
     Davidson diagonalization with overlap
     ethr =  9.70E-11,  avg # of iterations =  3.5

     negative rho (up, down):  8.561E-05 0.000E+00

     total cpu time spent up to now is       18.1 secs

     total energy              =     -73.88089831 Ry
     Harris-Foulkes estimate   =     -73.88089830 Ry
     estimated scf accuracy    <       0.00000001 Ry

     iteration # 38     ecut=    45.00 Ry     beta=0.05
     Davidson diagonalization with overlap
     ethr =  7.83E-11,  avg # of iterations =  1.0

     negative rho (up, down):  8.580E-05 0.000E+00

     total cpu time spent up to now is       18.1 secs

     total energy              =     -73.88089829 Ry
     Harris-Foulkes estimate   =     -73.88089831 Ry
     estimated scf accuracy    <       0.00000003 Ry

     iteration # 39     ecut=    45.00 Ry     beta=0.05
     Davidson diagonalization with overlap
     ethr =  7.83E-11,  avg # of iterations =  3.5

     negative rho (up, down):  8.579E-05 0.000E+00

     total cpu time spent up to now is       18.2 secs

     total energy              =     -73.88089830 Ry
     Harris-Foulkes estimate   =     -73.88089830 Ry
     estimated scf accuracy    <          3.4E-09 Ry

     iteration # 40     ecut=    45.00 Ry     beta=0.05
     Davidson diagonalization with overlap
     ethr =  2.15E-11,  avg # of iterations =  3.0

     negative rho (up, down):  8.564E-05 0.000E+00

     total cpu time spent up to now is       18.3 secs

     total energy              =     -73.88089830 Ry
     Harris-Foulkes estimate   =     -73.88089830 Ry
     estimated scf accuracy    <          5.0E-09 Ry

     iteration # 41     ecut=    45.00 Ry     beta=0.05
     Davidson diagonalization with overlap
     ethr =  2.15E-11,  avg # of iterations =  4.0

     negative rho (up, down):  8.564E-05 0.000E+00

     total cpu time spent up to now is       18.4 secs

     total energy              =     -73.88089830 Ry
     Harris-Foulkes estimate   =     -73.88089830 Ry
     estimated scf accuracy    <          3.1E-09 Ry

     iteration # 42     ecut=    45.00 Ry     beta=0.05
     Davidson diagonalization with overlap
     ethr =  1.96E-11,  avg # of iterations =  1.0

     negative rho (up, down):  8.569E-05 0.000E+00

     total cpu time spent up to now is       18.4 secs

     total energy              =     -73.88089830 Ry
     Harris-Foulkes estimate   =     -73.88089830 Ry
     estimated scf accuracy    <          2.7E-09 Ry

     iteration # 43     ecut=    45.00 Ry     beta=0.05
     Davidson diagonalization with overlap
     ethr =  1.67E-11,  avg # of iterations =  1.0

     negative rho (up, down):  8.566E-05 0.000E+00

     total cpu time spent up to now is       18.5 secs

     total energy              =     -73.88089830 Ry
     Harris-Foulkes estimate   =     -73.88089830 Ry
     estimated scf accuracy    <          2.4E-09 Ry

     iteration # 44     ecut=    45.00 Ry     beta=0.05
     Davidson diagonalization with overlap
     ethr =  1.50E-11,  avg # of iterations =  2.0

     negative rho (up, down):  8.566E-05 0.000E+00

     total cpu time spent up to now is       18.5 secs

     total energy              =     -73.88089830 Ry
     Harris-Foulkes estimate   =     -73.88089830 Ry
     estimated scf accuracy    <          2.8E-09 Ry

     iteration # 45     ecut=    45.00 Ry     beta=0.05
     Davidson diagonalization with overlap
     ethr =  1.50E-11,  avg # of iterations =  1.0

     negative rho (up, down):  8.567E-05 0.000E+00

     total cpu time spent up to now is       18.6 secs

     total energy              =     -73.88089830 Ry
     Harris-Foulkes estimate   =     -73.88089830 Ry
     estimated scf accuracy    <          2.7E-09 Ry

     iteration # 46     ecut=    45.00 Ry     beta=0.05
     Davidson diagonalization with overlap
     ethr =  1.50E-11,  avg # of iterations =  1.0

     negative rho (up, down):  8.574E-05 0.000E+00

     total cpu time spent up to now is       18.6 secs

     total energy              =     -73.88089830 Ry
     Harris-Foulkes estimate   =     -73.88089830 Ry
     estimated scf accuracy    <          2.6E-09 Ry

     iteration # 47     ecut=    45.00 Ry     beta=0.05
     Davidson diagonalization with overlap
     ethr =  1.50E-11,  avg # of iterations =  1.0

     negative rho (up, down):  8.576E-05 0.000E+00

     total cpu time spent up to now is       18.6 secs

     total energy              =     -73.88089830 Ry
     Harris-Foulkes estimate   =     -73.88089830 Ry
     estimated scf accuracy    <          4.1E-09 Ry

     iteration # 48     ecut=    45.00 Ry     beta=0.05
     Davidson diagonalization with overlap
     ethr =  1.50E-11,  avg # of iterations =  1.0

     negative rho (up, down):  8.580E-05 0.000E+00

     total cpu time spent up to now is       18.7 secs

     total energy              =     -73.88089830 Ry
     Harris-Foulkes estimate   =     -73.88089830 Ry
     estimated scf accuracy    <          3.9E-09 Ry

     iteration # 49     ecut=    45.00 Ry     beta=0.05
     Davidson diagonalization with overlap
     ethr =  1.50E-11,  avg # of iterations =  1.0

     negative rho (up, down):  8.582E-05 0.000E+00

     total cpu time spent up to now is       18.7 secs

     total energy              =     -73.88089830 Ry
     Harris-Foulkes estimate   =     -73.88089830 Ry
     estimated scf accuracy    <          1.7E-09 Ry

     iteration # 50     ecut=    45.00 Ry     beta=0.05
     Davidson diagonalization with overlap
     ethr =  1.03E-11,  avg # of iterations =  2.5

     negative rho (up, down):  8.582E-05 0.000E+00

     total cpu time spent up to now is       18.8 secs

     total energy              =     -73.88089830 Ry
     Harris-Foulkes estimate   =     -73.88089830 Ry
     estimated scf accuracy    <          9.0E-10 Ry

     iteration # 51     ecut=    45.00 Ry     beta=0.05
     Davidson diagonalization with overlap
     ethr =  5.63E-12,  avg # of iterations =  1.0

     negative rho (up, down):  8.584E-05 0.000E+00

     total cpu time spent up to now is       18.8 secs

     total energy              =     -73.88089830 Ry
     Harris-Foulkes estimate   =     -73.88089830 Ry
     estimated scf accuracy    <          6.7E-10 Ry

     iteration # 52     ecut=    45.00 Ry     beta=0.05
     Davidson diagonalization with overlap
     ethr =  4.16E-12,  avg # of iterations =  1.0

     negative rho (up, down):  8.581E-05 0.000E+00

     total cpu time spent up to now is       18.9 secs

     End of self-consistent calculation

          k = 0.2760 0.0760-0.0833 (  5704 PWs)   bands (ev):

   -20.3034 -16.3892 -13.4665 -11.4006  -8.6216  -8.1040  -6.9194  -3.8461
    -0.0358   2.9639   3.2920   4.3790

     occupation numbers 
     1.0000   1.0000   1.0000   1.0000   1.0000   1.0000   1.0000   1.0000
     0.0000   0.0000   0.0000   0.0000

          k = 0.2760 0.2279-0.0833 (  5702 PWs)   bands (ev):

   -19.6103 -18.2558 -11.4201 -10.0961  -9.9935  -7.8586  -7.3012  -5.7715
     2.3030   3.9239   4.2668   4.5700

     occupation numbers 
     1.0000   1.0000   1.0000   1.0000   1.0000   1.0000   1.0000   1.0000
     0.0000   0.0000   0.0000   0.0000

     the Fermi energy is    -1.6348 ev

!    total energy              =     -73.88089830 Ry
     Harris-Foulkes estimate   =     -73.88089830 Ry
     estimated scf accuracy    <          5.8E-11 Ry

     total all-electron energy =      -304.937304 Ry

     The total energy is the sum of the following terms:

     one-electron contribution =    -340.38598188 Ry
     hartree contribution      =     173.22785445 Ry
     xc contribution           =     -16.59657812 Ry
     ewald contribution        =     136.49926008 Ry
     one-center paw contrib.   =     -26.62545284 Ry
      -> PAW hartree energy AE =      11.22389741 Ry
      -> PAW hartree energy PS =     -11.20872861 Ry
      -> PAW xc energy AE      =     -11.01247943 Ry
      -> PAW xc energy PS      =       4.34094681 Ry
      -> total E_H with PAW    =     173.24302325 Ry
      -> total E_XC with PAW   =     -23.26811074 Ry
     smearing contrib. (-TS)   =      -0.00000000 Ry

     convergence has been achieved in  52 iterations

     negative rho (up, down):  8.581E-05 0.000E+00

     Forces acting on atoms (cartesian axes, Ry/au):

     atom    1 type  1   force =     0.00000000   -0.00009883    0.00000000
     atom    2 type  1   force =     0.00000000    0.00009772    0.00000000
     atom    3 type  1   force =     0.00000000   -0.00001808    0.00000000
     atom    4 type  1   force =     0.00000000    0.00001919    0.00000000
     The non-local contrib.  to forces
     atom    1 type  1   force =     0.00000000   -0.14909023    0.00000000
     atom    2 type  1   force =     0.00000000    0.14907505    0.00000000
     atom    3 type  1   force =     0.00000000   -0.14900938    0.00000000
     atom    4 type  1   force =     0.00000000    0.14902162    0.00000000
     The ionic contribution  to forces
     atom    1 type  1   force =    -0.00000000   -0.47861791   -0.00000000
     atom    2 type  1   force =     0.00000000    0.47854884   -0.00000000
     atom    3 type  1   force =     0.00000000   -0.47841796    0.00000000
     atom    4 type  1   force =    -0.00000000    0.47848703    0.00000000
     The local contribution  to forces
     atom    1 type  1   force =    -0.00000000    0.62215652    0.00000000
     atom    2 type  1   force =     0.00000000   -0.62207877    0.00000000
     atom    3 type  1   force =     0.00000000    0.62195849    0.00000000
     atom    4 type  1   force =     0.00000000   -0.62203281    0.00000000
     The core correction contribution to forces
     atom    1 type  1   force =    -0.00000000    0.00545288    0.00000000
     atom    2 type  1   force =    -0.00000000   -0.00545238    0.00000000
     atom    3 type  1   force =    -0.00000000    0.00545089    0.00000000
     atom    4 type  1   force =    -0.00000000   -0.00545132    0.00000000
     The Hubbard contrib.    to forces
     atom    1 type  1   force =     0.00000000    0.00000000    0.00000000
     atom    2 type  1   force =     0.00000000    0.00000000    0.00000000
     atom    3 type  1   force =     0.00000000    0.00000000    0.00000000
     atom    4 type  1   force =     0.00000000    0.00000000    0.00000000
     The SCF correction term to forces
     atom    1 type  1   force =     0.00000000    0.00000023   -0.00000000
     atom    2 type  1   force =    -0.00000000    0.00000529   -0.00000000
     atom    3 type  1   force =     0.00000000    0.00000019   -0.00000000
     atom    4 type  1   force =    -0.00000000   -0.00000503   -0.00000000

     Total force =     0.000141     Total SCF correction =     0.000007


     Computing stress (Cartesian axis) and pressure


     negative rho (up, down):  8.581E-05 0.000E+00
          total   stress  (Ry/bohr**3)                   (kbar)     P=    0.03
   0.00000125   0.00000000   0.00000000          0.18      0.00      0.00
   0.00000000   0.00000126   0.00000000          0.00      0.19      0.00
   0.00000000   0.00000000  -0.00000182          0.00      0.00     -0.27

     kinetic stress (kbar)   2376.49      0.00      0.00
                                0.00   2419.25      0.00
                                0.00      0.00   2761.36

     local   stress (kbar) -48530.39     -0.00     -0.00
                               -0.00 -48318.82      0.00
                               -0.00      0.00  47890.72

     nonloc. stress (kbar)    863.89      0.00      0.00
                                0.00    876.91      0.00
                                0.00      0.00    786.73

     hartree stress (kbar)  22615.24      0.00      0.00
                                0.00  22561.65      0.00
                                0.00      0.00 -22374.07

     exc-cor stress (kbar)   -282.82      0.00      0.00
                                0.00   -283.58      0.00
                                0.00      0.00   -309.78

     corecor stress (kbar)   -342.81      0.00      0.00
                                0.00   -342.74     -0.00
                                0.00     -0.00   -335.17

     ewald   stress (kbar)  23300.59     -0.00      0.00
                               -0.00  23087.51      0.00
                                0.00      0.00 -28420.05

     hubbard stress (kbar)      0.00      0.00      0.00
                                0.00      0.00      0.00
                                0.00      0.00      0.00

     london  stress (kbar)      0.00      0.00      0.00
                                0.00      0.00      0.00
                                0.00      0.00      0.00

     XDM     stress (kbar)      0.00      0.00      0.00
                                0.00      0.00      0.00
                                0.00      0.00      0.00

     dft-nl  stress (kbar)      0.00      0.00      0.00
                                0.00      0.00      0.00
                                0.00      0.00      0.00

     TS-vdW  stress (kbar)      0.00      0.00      0.00
                                0.00      0.00      0.00
                                0.00      0.00      0.00



     Writing output data file pwscf.save
 
     init_run     :      0.19s CPU      0.48s WALL (       2 calls)
     electrons    :     13.11s CPU     16.18s WALL (      12 calls)
     update_pot   :      0.52s CPU      0.55s WALL (      10 calls)
     forces       :      0.28s CPU      0.33s WALL (      12 calls)
     stress       :      0.47s CPU      0.53s WALL (      12 calls)

     Called by init_run:
     wfcinit      :      0.05s CPU      0.12s WALL (       2 calls)
     wfcinit:atom :      0.00s CPU      0.00s WALL (       4 calls)
     wfcinit:wfcr :      0.05s CPU      0.11s WALL (       4 calls)
     potinit      :      0.06s CPU      0.11s WALL (       2 calls)

     Called by electrons:
     c_bands      :      9.34s CPU     11.81s WALL (     218 calls)
     sum_band     :      0.92s CPU      0.98s WALL (     218 calls)
     v_of_rho     :      0.45s CPU      0.58s WALL (     224 calls)
     v_h          :      0.04s CPU      0.04s WALL (     224 calls)
     v_xc         :      0.45s CPU      0.57s WALL (     248 calls)
     newd         :      0.23s CPU      0.24s WALL (     224 calls)
     PAW_pot      :      2.16s CPU      2.37s WALL (     234 calls)
     mix_rho      :      0.13s CPU      0.15s WALL (     218 calls)

     Called by c_bands:
     init_us_2    :      0.04s CPU      0.04s WALL (     944 calls)
     cegterg      :      9.19s CPU     11.60s WALL (     436 calls)

     Called by sum_band:
     sum_band:bec :      0.01s CPU      0.01s WALL (     456 calls)
     addusdens    :      0.19s CPU      0.19s WALL (     218 calls)

     Called by *egterg:
     h_psi        :      3.30s CPU      3.41s WALL (    1756 calls)
     s_psi        :      0.05s CPU      0.06s WALL (    1756 calls)
     g_psi        :      0.02s CPU      0.02s WALL (    1316 calls)
     cdiaghg      :      4.83s CPU      6.68s WALL (    1720 calls)
     cegterg:over :      0.17s CPU      0.18s WALL (    1316 calls)
     cegterg:upda :      0.19s CPU      0.20s WALL (    1316 calls)
     cegterg:last :      0.05s CPU      0.06s WALL (     484 calls)
     cdiaghg:chol :      0.27s CPU      0.26s WALL (    1720 calls)
     cdiaghg:inve :      0.15s CPU      0.16s WALL (    1720 calls)
     cdiaghg:para :      0.18s CPU      0.19s WALL (    3440 calls)

     Called by h_psi:
     h_psi:pot    :      3.24s CPU      3.35s WALL (    1756 calls)
     h_psi:calbec :      0.23s CPU      0.26s WALL (    1756 calls)
     vloc_psi     :      2.86s CPU      2.93s WALL (    1756 calls)
     add_vuspsi   :      0.06s CPU      0.07s WALL (    1756 calls)

     General routines
     calbec       :      0.26s CPU      0.28s WALL (    2332 calls)
     fft          :      0.49s CPU      0.52s WALL (    3228 calls)
     fftw         :      2.95s CPU      3.02s WALL (   34430 calls)
     davcio       :      0.00s CPU      0.00s WALL (       4 calls)
 
     Parallel routines
     fft_scatter  :      2.16s CPU      2.17s WALL (   37658 calls)

     PAW routines
     PAW_pot      :      2.16s CPU      2.37s WALL (     234 calls)
     PAW_symme    :      0.02s CPU      0.03s WALL (     452 calls)
 
     PWSCF        :    15.07s CPU        18.98s WALL

 
   This run was terminated on:  13:33:43  20Sep2018            

=------------------------------------------------------------------------------=
   JOB DONE.
=------------------------------------------------------------------------------=
